id,formation_energy_per_atom,pretty_formula
mp-774320,-2.68013042,Mn12O5F19
mp-16623,-0.511794238,DyAl7Au3
mp-973333,-0.353169649,HoLuZn2
mp-559868,-2.582120871,NaLa(CO3)2
mp-757850,-1.876360026,K4Sb2O5
mp-977439,-0.245266469,Ce2ZnPb
mp-775128,-2.238849603,Fe3Sb(PO4)6
mp-7072,-0.803704502,Th(CoSi)2
mp-8037,-3.711441103,BaThO3
mp-769630,-2.9588346,Li2Mn3F8
mp-975423,-0.547682577,MnNiP
mp-780977,-2.439898578,Li4MnFe3(BO3)4
mp-998712,-2.294915577,TlGeF3
mp-32682,-0.228429874,Te8Ir3
mp-568847,-1.015882999,K4GeSe4
mp-623854,-2.979171377,NaNb3O8
mp-643043,-1.554105588,RbHO
mp-21960,-0.951361027,K9Fe2Se7
mp-555867,-2.667366783,BaNb2Bi2O9
mp-12636,-0.567574251,PRu
mp-764891,-2.379704398,Li5Fe8(BO3)8
mp-558279,-1.413479116,Tl2Te3O7
mp-862736,-0.208712576,SmAg3
mp-29635,-0.327772776,PuGa
mp-631386,0.674050327,Mg2NbFe
mp-201,-0.972994748,Yb5Sb3
mp-754272,-2.111228243,Cs2Ba2O3
mp-644028,-1.552062444,Fe2CuAs2(HO5)2
mp-568931,-0.655251703,YbNiSb
mp-643364,-1.512325419,HPbClO
mp-20748,-0.781079871,Dy4In(NiGe2)2
mp-694318,-2.083747264,In2(WO4)3
mp-15308,-0.975981146,TmSi3Rh5
mp-626496,-2.115191039,Al(HO)3
mp-18730,-1.494833566,K3Na(FeO4)2
mp-778080,-4.349320639,BaY3F11
mp-21426,-0.456753106,Dy(FeGe)2
mp-24336,-1.703090761,MgH4(ClO)2
mp-631491,0.963054383,BaNbTc2
mp-757616,-2.486635494,LiSn(PO3)4
mp-18126,-1.274530381,Tb3CuSnSe7
mp-680482,-0.647857169,AgMo6Br13
mp-1019586,-3.448414944,CaAl2SiO6
mp-631498,1.321472865,BaMgOs2
mp-8407,-1.014604415,Li3LaP2
mp-5448,-3.290411904,Pr3SbO7
mp-3696,-3.198686118,UNb3O10
mp-23488,-0.450558262,Tl5Se2I
mp-556717,-1.184013985,Tl3Ga9S13O2
mp-570900,-0.222707062,K4Sn9
mp-763989,-2.548948971,Mn3(OF2)2
mp-772783,-3.321163538,Li2Mg3Ti6O16
mp-774721,-3.112147009,Li5La3Nb2O12
mp-775424,-2.857960391,Na5Li4Ti5O14
mp-685992,-1.746335356,Li2CrCl4
mp-752636,-2.048999313,LiSbO3
mp-677550,-3.199040095,Ca5Al12Si12(AgO24)2
mp-754196,-1.731745087,Ba2SrI6
mp-6486,-3.143220927,SrBPO5
mp-675679,-3.425766615,UTa2O7
mp-556231,-0.929129854,In2GaBiS6
mp-554171,-3.05590635,Mg3(PO4)2
mp-13815,-3.614416869,Rb2NaErF6
mp-780395,-2.466097726,Cd(BO2)2
mp-761019,-2.455312786,Hf2N2O
mp-38728,-2.420610279,Sr(ErS2)2
mp-771334,-2.186239484,Li3TlPCO7
mp-571453,-1.850663831,K2SnCl6
mp-28842,-0.116975454,Si3PH9
mp-631553,0.920844098,Ga2BSb
mp-769616,-2.405382952,Na2CrPCO7
mp-28990,-1.594936492,Bi2Te4O11
mp-556635,-1.376175154,CuBi2(SeO3)4
mp-18267,-2.058658467,La2Cu(SeO3)4
mp-773576,-1.855638989,LiZn2Fe9O16
mp-999395,0.040675118,Nb3Fe
mp-532695,-3.166368232,Na3Zr2Si2PO12
mp-630880,-2.503701122,LiNd2Tl(MoO4)4
mp-11124,-1.301630576,CsLaHgSe3
mp-232,-0.89366034,DyRh
mp-977383,-0.334251986,ZnPd2Au
mp-6613,-3.590666155,Ba2YTaO6
mp-2154,-1.497674746,CeP
mp-1017987,-0.216136043,Tc3N
mp-7257,-2.782486428,K3NaP2(O3F)2
mp-569833,-0.467165745,Zr2Ga
mp-554463,-3.089169962,Na3LuSi2O7
mp-22302,-1.107822567,ZrVP
mp-766417,-2.224938849,Ba10Cu5O17
mp-18183,-3.576923391,YSnF7
mp-29803,-0.041606242,SiH
mp-675301,-0.387689799,Na(NO)2
mp-1006399,-0.331882761,CeZnIn
mp-20896,-0.405992957,TmInNi4
mp-998761,-2.072854926,TlNiF3
mp-850956,-2.069668515,Li2Mn3Cr3O12
mp-17743,-2.742465635,Sr3Sn2O7
mp-736,-0.697552652,Li3P
mp-973911,0.173609736,Pa3Re
mp-775783,-2.545194594,Hf2N2O
mp-677323,-0.574868651,Li11TiSb5
mp-628568,-0.660233661,FeCu2SnS4
mp-982,-0.92473836,TmPd3
mp-976030,-0.091591955,PrHoMg2
mp-13978,-3.893874395,Rb2ThF6
mp-570680,-0.871054525,Er(GeRh)2
mp-772552,-1.997570906,Li6CrO4
mp-540145,-2.32926097,Fe(PO3)5
mp-721650,-1.056846816,CaH14I10O7
mp-651682,-2.246771189,Cu3B7IO13
mp-770727,-2.739435068,Li3Al2FeO6
mp-21852,-1.452353386,Nb3PbS6
mp-17196,-2.214146226,TiAs2O7
mp-558288,-2.286543661,CdAs2S2(OF3)4
mp-775543,-2.265271041,SnPHO5
mp-540621,-2.473577964,SrGa2(GeO4)2
mp-17546,-1.747433962,Cs2RuO4
mp-772671,-2.106737273,Li5CrO4
mp-759290,-2.485263148,Li3Bi2(PO4)3
mp-12510,-0.950098046,LaSnPd
mp-567428,-1.276433808,Tb3CuGeSe7
mp-865587,-0.551923472,Y2CuRh
mp-756494,-2.228650287,Na3GePCO7
mp-21451,-2.185201114,Ba2SmCu3O7
mp-675332,-0.234147601,InI4
mp-561290,-2.957128151,K2BiF5
mp-14234,-2.949038727,MgB4O7
mp-752924,-2.384544373,NaYbO2
mp-779982,-2.540502835,Hf2N2O
mp-19369,-3.110203399,Ti2CrO5
mp-4344,-3.760076486,HoTaO4
mp-1019610,-3.160787488,Cs2MgSi5O12
mp-697181,-1.757700226,CsLi2(HO)3
mp-867224,-0.367778596,CaNdCd2
mp-567338,-1.022600981,Pr(SiPt)2
mp-562441,-2.176415994,Cs3AlO3
mp-8792,-0.238760634,Yb11(Ni10C)6
mp-21057,-0.878472781,La(GePt)2
mp-770795,-2.112542099,Na3CuBSO7
mp-773046,-3.320520316,Mg4Sc3(SiO3)8
mp-696805,-0.471895177,H2S
mp-1009083,-0.309513642,MgSnP2
mp-999439,0.10848455,Nb3Cr
mp-12469,-0.598520788,LaCd2Pd
mp-9056,-3.039620171,ZrPdF6
mp-756853,-2.241544278,LiBSbO3
mp-626554,-1.417643643,NaH9O5
mp-610645,-0.817621108,Ce(NiAs)2
mp-975380,-0.740028942,RbCdO3
mp-861666,-0.060478873,LiRu2W
mp-16914,-0.791440068,Y2Si5Ni3
mp-607409,-0.098736737,Hf5CuPb3
mp-555682,-1.527222676,Sn(SeO3)2
mp-12626,-3.617355102,K2SrBe2F8
mp-20524,-0.756828802,Sc2VB2Ir5
mp-560077,-1.703141954,AsSXe2(OF3)3
mp-6799,-1.327415925,LiCa4(BN2)3
mp-698687,-1.772212998,K4Mn2H16S4O23
mp-20705,-0.301550737,U2SnRu2
mp-768171,-1.327808203,Li8SbS6
mp-971863,0.112515164,ZnP
mp-30879,-0.302919722,Tb5Tl3
mp-561234,-3.984343162,BaNaZr2F11
mp-8290,-3.418372143,BaSnF6
mp-570021,-0.631100104,Ti6Tl5AgSe27
mp-625447,-2.279222347,Pr(HO)3
mp-559378,-3.325138724,Ba5Ta2Cl2O9
mp-3895,-1.123483109,Ho(SiRh)2
mp-568987,-0.308641645,Na2BeH4
mp-973964,-0.470149192,Lu2GaAg
mp-4988,-0.600263029,TlAsS2
mp-11631,-0.385485238,Dy2Al6Si4Au
mp-569509,-0.178921079,Er2Co7
mp-20115,-0.816383358,Eu(SiPd)2
mp-17567,-0.387231772,Ce2(ZnGe2)3
mp-687212,-2.448991873,Cr(PO3)4
mp-30907,-0.368610675,Dy3Co11B4
mp-626497,-2.10196257,Al(HO)3
mp-683904,-1.936006871,Yb2Te5O13
mp-676562,-2.386397181,Yb3Sm3S8
mp-754231,-3.671999478,LuTiO3
mp-975013,0.668190302,Rb3Dy
mp-36733,-1.543771558,La2CdSe4
mp-8605,-0.956770413,SrSbPt
mp-1019562,-3.356842325,Ca2SiO4
mp-5616,-3.258935405,Sr2P2O7
mp-707175,-1.670115514,BeH6(NF2)2
mp-1018736,-0.428749519,KCdAs
mp-568536,-1.793690277,BaI2
mp-22864,-0.232856273,Bi2Pt
mp-756152,-3.856323809,Sm4U2O11
mp-640159,-0.126932437,V2GaSn2
mp-542313,-3.78075397,Ce2O3
mp-6604,-3.439453504,Na2LiAlF6
mp-2096,-0.099746342,YbMg2
mp-743617,-1.637133654,KMnH4Cl3O2
mp-756166,-3.943797642,LaHoO3
mp-20805,-2.107130784,PdPbF4
mp-754409,-3.554401776,HoBO3
mp-20078,-1.417416908,Pb2O3
mp-2980,-2.285601229,Pr2Te4O11
mp-721582,-0.459993802,H2S
mp-775757,-4.03419706,HfO2
mp-722913,-0.772140599,Hf3Zn3N
mp-601861,-1.270429466,RbInS2
mp-30756,-0.546004914,LaSn3Ru
mp-776970,-1.253072627,Li5SbS4
mp-743986,-1.588620544,CsVH12(C2O7)2
mp-770413,-3.896711448,LaHoO3
mp-772968,-1.996203965,LiTlPHO3
mp-772433,-2.693196258,Li2Cr(BO2)5
mp-22874,-0.341429437,PBr5
mp-555844,-0.956430943,MnSbS2Cl
mp-975639,0.01463611,Pr3Er
mp-25929,-2.529516203,Li3Bi2(PO4)3
mp-580113,-0.18944478,Dy(Zn10Ru)2
mp-685855,-1.110565171,Nb3(Bi5Cl9)2
mp-972522,-0.328689583,SmTmZn2
mp-757372,-3.726189062,Sr5U5O19
mp-699248,-2.737381009,Sr2B5H2O11
mp-31077,-0.392244693,Tl2TeI6
mp-23352,-1.712991665,Ge(Bi3O5)4
mp-774237,-1.640313902,Li5Cr2Ni5O12
mp-29479,-1.50973333,C2(OF2)3
mp-3805,-0.394525465,Al(FeB)2
mp-654,0.009440814,Ce2Fe17
mp-8560,-2.218349924,SF6
mp-864801,-2.235250414,YbO2
mp-862977,-0.483875253,Pm2AgIr
mp-756435,-3.19482268,Sr3Nb4O13
mp-7437,-0.455025407,KZnP
mp-17190,-0.843141127,Sc5Ge3
mp-778458,-1.966687067,Li3Cu2(SO4)3
mp-849572,-2.636772704,Li2Fe3OF6
mp-778446,-0.732210154,Cr2(PS4)3
mp-21079,-0.657706334,Tb(GeRu)2
mp-777297,-0.569724465,K5H(CN2)2
mp-6646,-0.517255333,HoNi2B2C
mp-759946,-3.169655651,Sc16O15
mp-31088,-0.840933098,Dy2Pd2Pb
mp-705713,-1.720818193,Bi14WO24
mp-767720,-2.77379257,Li2V4Si4O13
mp-10340,-1.96644591,Na2GeTeO6
mp-978891,-0.381838001,Sm2InAg
mp-484,-0.019155462,Te3As2
mp-568049,-0.529115433,NdMgSi2
mp-622106,-0.541117464,Ba5Pb3
mp-30597,0.013040162,Cu10Sn3
mp-760979,-3.020416425,Na2Ti2O5
mp-20785,-0.435197055,Nd(FeGe)2
mp-23969,-1.399138815,ZnH2SeO5
mp-541094,-2.707795769,Ta2Hg3S(O2F5)2
mp-580439,-0.436138998,UFe5Si3
mp-20506,-0.439258504,NbNiTe2
mp-11401,-0.645420743,ScGa2Ni
mp-557414,-1.570100382,BaSi6N8O
mp-6985,0.063424163,Ti
mp-770771,-3.758540417,SrSc2O4
mp-25908,-2.508981556,Sn(PO3)4
mp-770956,-2.544955113,Li2TiMn2O5
mp-16519,-0.334792172,UAlNi4
mp-644245,-2.112987494,Na2PH3O5
mp-6748,-3.217894019,Cs2Ti(Si2O5)3
mp-754827,-3.19402115,Tm2TeO2
mp-720869,-1.216138133,H12C4N2O9
mp-571465,-0.768540833,PbIBr
mp-11808,-0.410328257,ScNi4Sn
mp-777444,-2.915791639,Li3Fe2F7
mp-676933,-2.456599801,CeAl8O16
mp-2807,-1.491746084,ScP
mp-14625,-0.567708344,NdCoGe3
mp-8017,-0.338526109,AlCuTe2
mp-828,-0.458062374,SiNi3
mp-762264,-2.459932048,Li2CoSiO4
mp-16927,-2.887310123,NaTbGeO4
mp-761629,-2.449449865,Li17V16O32
mp-767515,-3.268752994,Gd3AsO7
mp-15865,-2.852372132,RbScAsO4F
mp-1019608,-2.15022485,Cs3BO3
mp-978253,-0.857583321,Ce3(SiRh)2
mp-30737,-0.291229173,YMgAg
mp-554138,-3.257619693,Pr2SbO5F
mp-756156,-2.755735714,Rb2ZrO3
mp-772413,-3.372257818,Al8SiO14
mp-9527,-0.614159998,NdMnSi2
mp-2706,-2.729640456,SnF4
mp-850223,-2.547571286,Fe3OF5
mp-30352,-0.092164539,NaAg2
mp-1386,-0.255981209,HoPb3
mp-703276,-3.212204667,Ca5Al11TlSi13O48
mp-556143,-2.005277621,Na3Ga3(TeO6)2
mp-945077,-0.923226455,YTe3
mp-510490,-2.397924801,GdScS3
mp-542637,-0.512874537,K2B2Se7
mp-560894,-2.88848785,Li4Be3P3ClO12
mp-24528,-0.416350291,CrH8C4(S2N3)2
mp-866267,-2.445613751,YbMoClO4
mp-765725,-1.874792725,Na3Li5Mn5O9
mp-562420,-1.619226214,Cs3ClO
mp-30927,-2.592515953,CsAs4F13
mp-10044,-0.024118926,BAs
mp-29589,-0.703317748,Ta3(Se4Br3)2
mp-757404,-2.676939789,Li2Cu2Si5O13
mp-977590,-0.728031148,NdInPd2
mp-19507,-2.56995188,BaMn2V2O8
mp-29462,-0.468776294,NaGa3Te5
mp-975204,0.05251287,Rb
mp-505597,-0.828286831,Tb(Ni2P)2
mp-976425,-0.062120843,Nd2Mg
mp-1001571,-2.2930582,CaFeO3
mp-7534,-1.438632852,K2Cd2O3
mp-23364,-2.180967264,CsLiCl2
mp-651997,-1.992178568,Fe3(GeO4)2
mp-538,-0.339637576,CaAg
mp-646039,-0.000742959,In7Cu10
mp-33857,-2.128548277,CrSbO4
mp-973432,-1.019194246,LuScRh2
mp-505534,-0.369738701,PuB6
mp-16747,-0.301703518,LuAgPb
mp-676315,-1.241981675,Y2GeI2
mp-976725,-0.186640535,Hf3Au
mp-867735,-3.113255996,PrSmO2
mp-22262,-0.61113542,CoMoP
mp-759812,-3.304571445,Li4Ti11O24
mp-764817,-2.454169746,Li2Mg11(WO4)12
mp-1020193,-1.503394942,KNO3
mp-10300,-0.978495125,ZrMoP
mp-28623,-2.242385214,Li4Ge5O12
mp-768440,-1.375760658,Li3VS4
mp-864794,-0.031408121,ZnAg3
mp-776120,-2.32779202,Mn3Cr2Cu(PO4)6
mp-861505,-0.26163636,Pr2MgTl
mp-977204,-0.145801694,NaTl2Sb
mp-1007761,0.081810161,HW
mp-38108,-2.045895312,Ba3Pt2O7
mp-770842,-1.90519818,Li4Mn2Co3Sb3O16
mp-31472,-0.20475209,Rb5Hg19
mp-623058,-0.99398363,Ti2Ag2P2S11
mp-28970,-2.451969711,Nd2NCl3
mp-849388,-2.585026659,V2O3F
mp-976265,-0.685650426,Hf2OsPd
mp-10132,-0.326840767,UB2Os3
mp-23562,-1.188931161,KIO4
mp-972461,0.122843813,Sm3Zr
mp-19427,-1.54279868,Na7(CoO3)2
mp-769263,-2.955804802,TbInO3
mp-772486,-2.860963775,Lu2Sb2O7
mp-6755,-2.385018863,KSn4(PO4)3
mp-766971,-1.331900612,Li4CrS4
mp-1013531,0.622409469,Sr3BiN
mp-19339,-2.381558031,LaNiO3
mp-989178,-4.063542617,ScOF
mp-23778,-0.794798077,H4CN2O
mp-22067,-2.398858051,Ba2CuGe2O7
mp-720212,-3.089079639,Rb9Na2Al11Si13O48
mp-989514,-1.904621922,Cs2NaSbCl6
mp-775460,-1.947191166,Li2CrFe3O8
mp-21440,-0.265577479,NbCrGe
mp-29993,-3.07862916,TaAgF6
mp-559209,-1.606005874,NaCuAsO4
mp-13019,-3.528567164,NaLa2TaO6
mp-541870,-2.46768976,KAl2P2H5O11
mp-527,-0.324468082,BaCd
mp-557584,-2.303348973,K4Ba(GeO3)3
mp-862493,-0.207471113,LiEr2Al
mp-765310,-2.506095543,Li5Ni2O2F5
mp-558724,-2.07918781,La2SiS5
mp-11338,-0.879058353,Sc3Si3Ni2
mp-972174,-0.355040262,YbLuTl2
mp-865878,-0.478647203,Ti2TcNi
mp-715276,-1.833941835,Fe2O3
mp-7502,-1.754472593,K2Sn2O3
mp-569576,-1.570477521,La5(SiN3)3
mp-505781,-0.327794569,MnGePd2
mp-567820,-0.471795092,K6NbTlAs4
mp-14532,-3.231339141,NaTa3O8
mp-975222,0.14477946,RbSr3
mp-764971,-2.349050803,Li3Fe8(BO3)8
mp-6030,-3.289330982,Be3Al2(SiO3)6
mp-767644,-2.524773813,LiV(PO4)2
mp-1018802,-0.107479195,MnGaGe
mp-541908,-2.921858333,KSbF6
mp-8402,-3.516511174,RbMgF3
mp-20786,-0.263221666,Dy3In
mp-4747,-2.90621713,Ca2SnO4
mp-559985,-2.809348916,CaP4O11
mp-561304,-0.618356587,KAg3As2S5
mp-569826,-0.695565895,K2Ge2Se5
mp-669458,-0.972568053,Cs3Bi2I9
mp-17418,-3.58571331,SmSnF7
mp-12843,-1.707807976,YCuS2
mp-774886,-2.102033147,Li4Nb3Cu3(TeO8)2
mp-559574,-2.83562842,K3Sm(BO3)2
mp-19379,-1.885332027,CoSO4
mp-6248,-2.941427969,LiGd(PO3)4
mp-772191,-3.0741935,Tm2TeO6
mp-754891,-2.213076762,Zr5N5O2
mp-1176,-1.310972795,TbTe
mp-764573,-2.36679671,LiFe2(BO3)2
mp-554145,-2.5924662,Na3SrPCO7
mp-19870,-0.129423025,GaFe3
mp-299,-0.469791354,Mo9Se11
mp-675638,-1.977343233,Pr2PbS4
mp-36194,-3.255881905,Ba2TiO4
mp-752709,-2.052033654,InBP2H5NO9
mp-1019775,-2.036186683,K2Ge(S2O7)3
mp-12975,-0.773320719,Sm2CdPd2
mp-570216,-0.835399803,Sm(AsPd)2
mp-763790,-2.477563327,Mn(PO3)3
mp-753544,-1.831128723,Li2BiO3
mp-767091,-2.621889372,LiNbSn3(PO4)6
mp-571298,-0.20469441,SiC
mp-569607,-0.659352455,Pr(GeRu)2
mp-773070,-2.839864126,KNb2O5
mp-22301,-2.088251218,Sr2DyCu3(PbO4)2
mp-867163,-0.526655924,Sr2AgPt
mp-10112,-0.635735535,LaB2Ir3
mp-775231,-2.25917886,NiSb3(PO4)6
mp-31093,-0.761999597,Dy2CoSi2
mp-773133,-2.443811531,K3CuB2P4H3O17
mp-18515,-3.306418443,NaGdSiO4
mp-555064,-1.585321962,Cd(CO2)2
mp-30579,-0.178755709,ErCu5
mp-776611,-2.409775317,Li4Mn2NbNi3(PO4)6
mp-542638,-1.069817356,K2Mn(PS3)2
mp-30428,-0.063274871,BaCu
mp-772571,-2.040277025,Li4CrO5
mp-23799,-2.403989805,NaZnP2HO7
mp-754989,-2.221803397,Er(BiO2)3
mp-23710,-0.275719311,MgH2
mp-18288,-2.451628077,Ti(SnO2)2
mp-765022,-2.64400905,LiVPO4
mp-22075,-0.418974961,In7Pt3
mp-773049,-2.781977527,K3LiNb6O15
mp-676599,-0.893413408,Cu8NO11
mp-31460,-0.204571553,NbCoSb
mp-3288,-1.378187847,CsNO2
mp-744948,-1.401918174,FeH8(ClO2)2
mp-1018704,-0.442114807,GdAlZn
mp-780583,-2.467792152,Li2MnFe(BO3)2
mp-543039,-1.571016394,TePbO3
mp-626729,-1.700059776,Ga(HO)3
mp-1383,-0.224818835,UCo2
mp-29088,-0.778866758,Sr3(GeN)2
mp-569751,-0.862227013,AlPH8(CCl2)2
mp-996993,-0.565398542,CuBrO2
mp-20346,-0.246560187,TbInCo2
mp-27717,-1.575967747,As2S2F3
mp-775601,-2.504141044,Li5Mn3Bi2(PO4)6
mp-706239,-2.872400908,NaCa2Mg2V3O12
mp-672191,-0.270397724,CeInAg2
mp-684949,-1.992610017,Ca2F
mp-972794,0.457718051,SiSb3
mp-17090,-1.312627094,SrTlPS4
mp-555223,-2.995798488,Cs2MnF5
mp-570164,-0.25319218,YbTl3
mp-679669,-1.901713086,NaZr2SN2Cl
mp-554888,-1.706092819,KUI3O11
mp-541789,-2.555145064,CsGd(CO3)2
mp-849463,-1.944008179,Li11(FeO3)4
mp-989649,-0.777084749,CaMoN3
mp-570779,-0.963183029,Pr3OsI3
mp-12398,-0.233378252,Mg(CoGe)6
mp-706809,-2.88374771,Ca2Al11Si13Ag7O48
mp-555096,-2.182829016,PrS2
mp-29460,-1.183700725,Tl3PdCl5
mp-13137,-1.507699178,Hf2CS
mp-769601,-2.520312616,LiVSO4F3
mp-983327,-1.778894191,KH4O2F
mp-21198,-0.594950532,DyAgSn
mp-721047,-1.654317808,CaH8(ClO2)2
mp-554072,-2.13012128,K2CO3
mp-651772,-0.347313711,UTe5
mp-19505,-2.319196488,SrCr10O15
mp-555561,-3.471314175,BaU(SiO4)2
mp-557441,-0.935405295,KAu(IO3)4
mp-31980,-2.536837314,LiMn(PO3)4
mp-758558,-0.932286749,SbNO
mp-768821,-2.282090837,Li2Bi2B2O7
mp-984754,0.011186603,PmHo3
mp-20906,-0.328218426,HoCoC
mp-569106,-0.803959987,Yb2CdSb2
mp-695998,-0.315118443,K2ZnH4
mp-24242,-1.459906481,CuHOF
mp-510062,-1.365386436,CsSmCdSe3
mp-16625,-0.475027884,YbAl7Au3
mp-974760,1.033403147,Rb3Th
mp-557211,-3.278053163,SiO2
mp-769395,-3.380443275,Ho3ReO7
mp-781682,-2.419730159,LiMn3(BO3)3
mp-778885,-1.923208847,Li10Mn3Cr2Ni3O16
mp-571643,-0.616118376,Yb11Ge10
mp-756202,-1.752470285,Ba2SrI6
mp-606,-0.763770295,U3As4
mp-722997,-3.214486034,NaCaAlH2OF6
mp-556548,-2.595777881,Bi(BO2)3
mp-775181,-2.424147723,Mn3Nb(PO4)6
mp-780195,-2.501254941,LiVP3HO10
mp-774425,-2.383285419,FeSb3(PO4)6
mp-21639,-3.517506332,KTiF4
mp-743698,-3.370258315,Ca5Dy3Ti5Mn3O24
mp-23653,-2.255376658,Na3MgC2ClO6
mp-639675,-0.05942861,EuCu
mp-773101,-3.020898165,K3Li2Ta6(PO8)3
mp-779525,-2.454630846,Li3Sb3P8O29
mp-971934,0.111703483,Zn3In
mp-27272,-1.525234638,Ca3PI3
mp-2729,0.020618736,Sn7Os3
mp-775980,-3.785750271,ZrO2
mp-862939,-0.333283717,PmMgCd2
mp-7143,-3.408550323,BaPuO3
mp-779837,-2.549882939,Hf2N2O
mp-699368,-0.839485278,Na3(W2O3)2
mp-753842,-3.72783218,YZr5O11
mp-1019533,-3.464768287,Ba9Y2(SiO4)6
mp-3439,-2.377029436,SbPO4
mp-769319,-3.190516106,LiNb(OF)2
mp-31113,-3.614924452,Dy3GaO6
mp-777670,-2.393554719,Li4V3Cr3(SnO8)2
mp-510687,-0.407893139,DyAgPb
mp-2187,-0.460602391,TiSb
mp-3051,-2.74729076,Mg2GeO4
mp-23986,-1.307703046,NaH6ClO5
mp-541688,-0.875814648,K3GaTe3
mp-753776,-1.196496991,Li4SbS4
mp-4520,-0.503467878,Y(CuGe)2
mp-542024,-0.898038764,Sc2GaB2Rh5
mp-18156,-1.024683696,KBaPSe4
mp-10250,-3.759216088,BaLiF3
mp-19323,-3.20972249,SmVO4
mp-505260,-0.237410152,Te10Mo3I10
mp-542171,-0.804015063,HoNiGe
mp-561346,-2.705789611,Na2ZrGeO5
mp-574266,-0.099124921,MgGa
mp-752768,-1.967920799,LiAgF4
mp-9236,-0.406760377,U2Si4Mo3
mp-849518,-2.58891647,Mn12O7F17
mp-974445,0.384764071,Re3Ge
mp-3398,-0.52175063,Ho2Ni2Pb
mp-755441,-2.766998138,SrTaNO2
mp-9418,-1.818363776,Eu(CuO2)2
mp-570873,-0.27751691,Nb(Te2I3)2
mp-656850,-1.849106201,Ti2O7
mp-11413,-0.543502693,ScGa2
mp-758107,-2.834297708,Yb2P4O13
mp-571015,-0.144946883,CuP4Se4I
mp-504607,-2.999345539,YInO3
mp-3605,-0.613551194,Th(CoGe)2
mp-982980,-2.346739927,Na3DyCl6
mp-570218,-0.315392675,LiBeH3
mp-766345,-4.299489117,Y5O4F7
mp-26173,-2.323170852,LiBi3(PO5)2
mp-985805,-0.076251391,AlAg2
mp-620190,-0.836544581,V2P4S13
mp-6075,-3.049982885,Ba2Li(BO2)5
mp-865051,-0.230117234,NaCa2Tl
mp-764889,-2.021511316,Li9Fe5O12
mp-605642,-2.456333044,KB3(HO3)2
mp-7210,-2.261591252,Cd2B2O5
mp-21532,-3.059200341,La2Ge2O7
mp-1734,-0.220445265,CaZn5
mp-14112,-1.56343935,PdF3
mp-862724,-2.848728723,Rb2Pu2O5
mp-573514,-0.440251496,CsSb
mp-1285,-0.944765483,PtO2
mp-698060,-2.201005907,PHOF2
mp-775176,-1.953471599,Li4FeTe2WO12
mp-29621,-0.891335948,Ba5Bi3
mp-864638,-1.61374586,Ba2InBiS5
mp-780329,-2.6676379,Li2MnV(P2O7)2
mp-972908,0.015372457,La3Dy
mp-505186,-1.318273888,Cs4Pr6C2I13
mp-17912,-0.939714869,Rb3SbSe3
mp-766179,-2.822838054,LiSi3BiO8
mp-28449,-3.449691393,CsTbF5
mp-849672,-2.855622753,Mn6OF11
mp-22319,-0.27357838,UB12
mp-604694,-2.047465895,FeP3(HO2)6
mp-3476,-2.510494727,P2PbO6
mp-975531,-0.317815565,RbCr5Te8
mp-644,-0.962521577,K5Te3
mp-19115,-2.344392295,CaFeO3
mp-773135,-2.078426414,Li3Cu3(PO4)2
mp-569428,-0.044128836,Pr2Fe14B
mp-773136,-1.868761177,LiCu2PO4
mp-6099,-3.360872883,LiSc(SiO3)2
mp-850950,-2.408304794,LiMn3(BO3)3
mp-541487,-0.445376646,TlPt2Se3
mp-27359,-2.327764149,CsScCl3
mp-1009650,0.517215085,RbSb
mp-573541,-0.494504213,Sm3(AlNi3)2
mp-773830,-0.59570643,Sn2N2O
mp-770213,-2.746430592,Li3Ti(BO3)2
mp-974253,-0.346103832,HoErZn2
mp-9453,-1.752155123,Sr2ZnCu2(SO)2
mp-867344,-0.357440634,Er2NiOs
mp-616597,-1.781902798,ReHgO4
mp-568726,-0.974586372,Mo(SeCl6)2
mp-568827,-0.109804215,Be12W
mp-50,0,Ta
mp-765706,-2.131663262,Li2VFeO4
mp-8885,-1.678171197,BaCdS2
mp-12642,-3.50612347,Ba2TmNbO6
mp-623862,-1.278798412,Rb3Tm2Cu4Br13
mp-567524,-0.47096644,K3Ga3As4
mp-567748,-0.455414398,Zr2Al3C4
mp-767036,-1.958541199,Li2Co(CO3)2
mp-754185,-0.373692504,Y2MgNi2
mp-17329,-2.182071429,PrS2
mp-570403,-0.288576123,TbCd3
mp-631257,0.553772412,AsSeBr
mp-754126,-0.679510084,CuAuO2
mp-561814,-2.850226021,RbB5O8
mp-758620,-1.51766643,LiCu2(CO3)3
mp-4768,-0.667428858,Eu(SiNi)2
mp-567643,-0.270980769,Ba12Na15Li8N6
mp-766310,-1.642749263,BaCa2I6
mp-22235,-0.604693185,Cs2MnSnTe4
mp-15957,-0.413697575,Sc15C19
mp-773139,-2.108525702,Li4V3Sb5O16
mp-744747,-2.204745843,V2P2H4O11
mp-6204,-3.582162886,Cs2NaScF6
mp-23174,-1.116599442,ReCl3
mp-775315,-2.356945535,Si6Bi9O26
mp-866688,-0.744837981,Cs4P2PdSe8
mp-16358,-0.228682455,ZnNi2Ge
mp-777423,-2.549642465,Na6Ti2O7
mp-773177,-1.954755008,Na3CoAsCO7
mp-6943,-3.396303937,Ca4GdB3O10
mp-39239,-2.598411187,SrLaMnRuO6
mp-11659,-3.242941658,BaTi(BO3)2
mp-752526,-3.073144851,Lu2TeO6
mp-697168,-1.089142638,MgH6(NCl)2
mp-777563,-0.950286694,Ta2H15N6Cl7
mp-29245,-0.310338558,Cd2P3Br
mp-756948,-1.636269647,Li4Cu3SbO8
mp-604613,-0.44104635,La2Ga12Ni
mp-20753,-0.299868617,CeCoC2
mp-20079,-2.195156313,CaPbO3