id,formation_energy_per_atom,pretty_formula
mp-772779,-1.768886334,Ca(SeO3)2
mp-6113,-2.580693618,LiTiAsO5
mp-12625,-2.515539946,U2TeO2
mp-13596,-3.679735824,K2ZrF6
mp-760403,-1.883636713,CaCd3O4
mp-706632,-0.648617712,H15RhBr3N5
mp-1785,-1.187924247,PrSb
mp-622197,-2.062946952,Cs2PtS6(O3F)6
mp-19034,-2.777297108,Mg3V2O8
mp-1018145,0.331852722,MnSn
mp-27769,-0.520879198,V3AsC
mp-867913,-0.59604432,LiHo2Ir
mp-18100,-0.839263192,Na6Ge2Se7
mp-559142,-2.723923808,KLi(PO3)2
mp-707977,-3.132295117,AlPO4
mp-777595,-2.868176021,LiFeF4
mp-772160,-1.530516648,SrLaI5
mp-560973,-3.26093714,SiO2
mp-8868,-0.338640046,Ba3NaN
mp-11452,-0.711550837,HfOs
mp-556041,-3.476930267,Ba2NiF6
mp-8126,-0.679854807,YCuSi
mp-30698,-0.120725335,PrCu6
mp-757551,-2.478758195,Li3Sn3(PO4)4
mp-556834,-1.619896618,RuCl(OF3)2
mp-18893,-2.427694483,Ca2Mn3O8
mp-6301,-2.687449112,Ba3CeRu2O9
mp-27888,-3.40806629,Zr3GeO8
mp-752584,-1.170134085,Na5Cu7O13
mp-754065,-1.6428415,Hg(SbO3)2
mp-15541,-3.142087739,KNa2Si12(BO10)3
mp-867943,-0.359871019,Na3H7Os
mp-866695,-0.93630759,ReTeSeCl4
mp-15161,-2.61071045,Tb2Ru2O7
mp-18691,-0.623174481,Rb2Ni3Se4
mp-760376,-2.683936012,KTiO3
mp-755382,-1.636548963,BiSbO3
mp-626151,-3.030725853,YHO2
mp-754875,-1.031626713,TbSi2Rh3
mp-780106,-2.140670451,FeNi(PO4)2
mp-769266,-3.496795104,Ca3Ta2O8
mp-30656,-0.546537377,TiGaNi
mp-768143,-2.229790732,NaGePCO7
mp-753890,-0.05249226,Ni2H
mp-757256,-1.1898593,ZnH4(IO4)2
mp-772282,-1.444256065,Sb4I2O5
mp-20095,-0.892696011,Eu(FeP)2
mp-17308,-3.680522307,Tb2Si2O7
mp-27288,-1.653770456,RuXeF7
mp-989526,-2.748310341,Cs2KTlF6
mp-773146,-2.307135822,Li2CuPO4
mp-930,-1.332249831,ZrP
mp-35759,-2.739331979,Li2NiF4
mp-1018077,-0.626701992,ErGa
mp-568671,-0.586828885,V5Si3
mp-504353,-2.54085693,LiSb(PO3)4
mp-983062,0.03346975,K3Cd
mp-558102,-2.996611147,KLiSi2O5
mp-1990,-0.627893587,Mg3As2
mp-7475,-2.599425538,La2S3
mp-30477,-0.562645093,LiCaSn
mp-1018094,-0.535817611,BaGaSnH
mp-17974,-0.202649475,Na3Hg2
mp-23,0,Ni
mp-5391,-3.189682655,Mg2SiO4
mp-772798,-3.549996172,BaLa2O4
mp-770520,-2.360085947,Li4Ti2Cr3Fe3O16
mp-978499,0.49289361,SiAs3
mp-29198,-0.501909782,Na5AuSe12
mp-769228,-1.892443044,Cs5YO4
mp-757045,-2.473301056,Ti3Nb(CuO4)3
mp-849433,-2.865577556,SrTiH4(OF3)2
mp-4171,-0.83767774,DySi2Ni
mp-755159,-1.646641221,Tl2Ge2O7
mp-25935,-2.889535722,Li3Ti2(PO4)3
mp-558199,-0.511207033,CuAs4S3Cl
mp-768140,-2.280222673,Na2BiPCO7
mp-1822,-0.92592997,TiAs
mp-9228,-1.061971951,HgSeO3
mp-28202,-1.44297275,K3NO4
mp-1769,-0.44324102,SbPd
mp-23674,-1.41690387,NaH4BrO2
mp-779156,-1.335334656,CdSeO4
mp-672950,-2.376751597,Sb(PO3)4
mp-556503,-1.563077182,LiH3CO3
mp-996962,-1.12126567,LiAgO2
mp-27692,-3.040980421,BaB4O7
mp-774186,-2.107208876,LiVP2H5O9
mp-4423,-3.756825145,La2Ti2O7
mp-5004,-0.414664452,Na2B2Se7
mp-31275,-0.514426214,Ba(TeP2)2
mp-13946,-3.672217251,Rb2ZrF6
mp-8877,-3.400940108,Sr4Al6SO12
mp-720861,-1.33998885,H13ClO6
mp-1014281,2.021269698,C3N
mp-20997,-0.077609477,InNi
mp-631313,0.85905125,SrHf2Mo
mp-31363,-1.994169007,K2TaCl6
mp-1019744,-3.212624032,K2Al2Si3O10
mp-631371,0.53672952,TlCuIr
mp-554006,-3.451672009,SrCaSiO4
mp-17322,-1.110914461,SrCu2SnS4
mp-567734,-0.871862856,AlAs3(SeCl)4
mp-977557,-0.646054678,NdCdPd2
mp-769631,-1.906983909,Li2Mn3NiO8
mp-33932,-2.522860125,NbHO3
mp-862965,-0.568025419,PmTlAu2
mp-17235,-3.659063953,Sm2Si2O7
mp-259,-0.227573675,AlMo3
mp-560334,-3.166677392,NaAlSiO4
mp-554141,-3.398209632,Ca3SiO5
mp-557805,-0.806107368,MnBiS2Br
mp-861588,-0.129290045,Pr2CuRu
mp-12193,-3.752771957,Nd2Ti2O7
mp-2675,-0.214101407,MgNi2
mp-30772,-0.023588113,NdMg12
mp-20557,-0.81606803,YSiNi
mp-556058,-1.66176918,Na2RuO3
mp-21537,-0.378216587,Ce(In2Au)2
mp-31160,-0.50742587,CaZnSn
mp-770799,-2.547900897,Li5NbO5
mp-865833,-0.340941469,LaYbZn2
mp-2080,-0.059712606,SrBe13
mp-8810,-2.74665835,SrZn2(PO4)2
mp-556515,-2.254803928,AsSOF9
mp-735022,-2.858773569,SrPHO4
mp-975822,-0.306167298,PrNdZn2
mp-743607,-2.955820866,Li2Ti4Co(PO5)4
mp-996963,-0.899248895,CdAgO2
mp-690541,-1.526270601,Tl2SO3
mp-972220,-0.848065053,TiPt3
mp-13863,-2.714777212,BaGeO3
mp-30013,-1.282593862,SbKr3F11
mp-7704,-0.299616753,Ca(AlSi)2
mp-643384,-2.080516784,BaHIO
mp-15225,-3.631006471,Nd2Si2O7
mp-570838,-0.279868406,CdHg4(AsI2)2
mp-703253,-1.575223563,RbFeSe2O7
mp-774146,-1.324326996,W(BrO)2
mp-865710,-0.385005176,LiSnAu2
mp-765406,-2.871705264,Nd2NiO4
mp-42227,-3.188125955,Cs2ZrTlOF5
mp-13356,-2.748188528,Ba2SrTeO6
mp-22812,-0.151620566,In2Ir
mp-772464,-1.991347505,Li4Cr3Fe5O16
mp-784630,-0.069426877,Ni2Mo
mp-690495,-1.842779862,Fe5SnO8
mp-23053,-1.067218677,PbICl
mp-973666,-0.783370065,KV5Se8
mp-27660,-1.244277945,Ba(FeS2)2
mp-557381,-3.007596978,Rb3U3Ge2O13
mp-971718,0.1893905,ZnBi3
mp-29387,-0.348715732,K5SnBi3
mp-510545,-2.114561549,K2BeH4(SO5)2
mp-2847,-0.589312945,ErB4
mp-541156,-2.043550588,Ge4PbO9
mp-677716,-3.043971488,RbAl3Cd(SiO4)3
mp-19318,-1.319311741,Ag2MoO4
mp-781051,-1.960993737,Li5V2Ni3O10
mp-29652,-0.656144331,TaSe3
mp-30644,-0.456466562,Hf3Nb2Ga3
mp-27835,-0.891316468,K2OsBr6
mp-14734,-2.348585794,CsCOF3
mp-19934,-0.841224283,CeMgPt
mp-17593,-0.361052399,Ta5Ge3
mp-850952,-2.466983481,Li2Mn3(BO3)3
mp-28704,-0.118393996,Cr4As3
mp-9970,-0.827544122,ScGe
mp-504304,-2.189527866,LiCuPO4
mp-696983,-0.276818659,KGaH4
mp-867787,-0.152065336,RbTl2Bi
mp-8717,-0.913881551,Rb2MnSe2
mp-2163,-0.925863057,HoRh
mp-757788,-2.571591995,LiNb(PO3)4
mp-778822,-2.013364688,Mn2(SO4)3
mp-694868,-2.859459607,Rb2ZrFe(PO4)3
mp-5372,-1.080137525,RbFeS2
mp-1868,-1.233166011,VS
mp-865516,-0.390691598,YPaRu2
mp-541433,-1.571885285,Cd(BiO2)2
mp-30171,-0.652603269,Ho4Ge9Ir13
mp-31352,-2.370672653,Er2(SeO3)3
mp-29118,-0.923424573,Ho3Ge3Ir2
mp-757197,-4.000866338,DyY3O6
mp-369,-0.435038378,TbAl3
mp-770800,-2.874422479,Li4Ti3Nb5O16
mp-568511,-0.625997476,Ca7(B7Rh10)2
mp-20687,-2.923609304,Sr2LuRuO6
mp-1009493,-0.670021161,NpN
mp-543011,-1.127814422,ZnS
mp-764224,-2.56078985,Li2V2O5F2
mp-22551,-2.789368673,UP2(PbO5)2
mp-7535,-2.506414395,Li5AlO4
mp-1019534,-3.466194818,BaAl4O7
mp-504567,-1.526489589,Mn3(CuO4)2
mp-770907,-2.884400032,Gd2W2O9
mp-760786,-2.013898486,Li2Cu3F11
mp-972408,-0.394155417,UBiTe
mp-866281,-0.707075495,Er2PdRu
mp-19378,-1.687745159,CrAgO2
mp-769390,-3.477428719,Ca3Ta2O8
mp-18765,-1.226651656,Na2NiO2
mp-766888,-1.791364656,Sb9PO25
mp-19315,-2.782330956,Sr2MnWO6
mp-675208,-0.480123057,Co(Mo3Se4)4
mp-16304,-1.356549071,YPPt
mp-778509,-3.003191484,LiVF3
mp-1780,-1.042525582,ScRh
mp-2486,-0.109956714,UC2
mp-568885,-0.409294216,Ce2Ga12Pd
mp-978266,-0.522742391,Mg2ZnPt
mp-754768,-2.470267706,Tb2Pt2O7
mp-777488,-3.022501231,Li3FeF6
mp-3907,-1.072899065,Er(SiIr)2
mp-1009878,0.413954091,ZrC
mp-26172,-2.417857197,Sn(PO3)3
mp-672374,-0.206765217,UNi2Sn
mp-754462,-2.153644964,SbTe2F6
mp-777624,-2.249572176,Li9V3(WO4)7
mp-978984,-1.066945775,TmMgPt2
mp-605333,-1.492013229,In2Cu2O5
mp-759680,-2.754146022,LiSi2BiO6
mp-557802,-3.121220293,K2Be(Si2O5)2
mp-1098,-1.173446123,Yb4As3
mp-2070,-0.786616691,CoS2
mp-775820,-2.145241889,Ti2N2O
mp-973741,0.196093329,LiHo3
mp-559655,-2.066886748,PNF2
mp-25380,-1.750060699,CuPO4F
mp-677164,-1.559319049,CuAs2Pb6Cl7O6
mp-505319,-1.477490969,PtF6
mp-763002,-2.308080838,Fe4O3F5
mp-766238,-2.349885972,Zr2N2O
mp-30342,-0.362949105,HoInAg2
mp-980053,-0.873745734,YbPrAu2
mp-555464,-2.551169887,KRb2NiF6
mp-23837,-1.805338964,NdH3(CO2)3
mp-867805,-0.272569458,LiCa2Ga
mp-2495,-2.35139547,PrS
mp-639138,-2.143892066,EuSeClO3
mp-1020013,-2.237188051,Li2S2O7
mp-778086,-4.25419421,Ba3Y2F12
mp-639682,-3.260192029,SiO2
mp-213,-0.676106028,CaPd
mp-649470,-1.576759564,K3Nd2(NO3)9
mp-637308,-0.52542833,Ce5Sn3
mp-768422,-3.081909282,TmHO2
mp-3522,-0.27351049,MgCuSb
mp-773089,-2.878439407,K3Li2Nb6(PO8)3
mp-8963,-2.46135697,Cs2HgF4
mp-759759,-2.222664746,NaGa3P2(HO3)4
mp-977376,-0.672800399,TbCdAu2
mp-764589,-2.366836636,LiFe2(BO3)2
mp-558099,-0.988768996,Nb2Tl5S4Br9
mp-28069,-2.258191507,Ca3AsCl3
mp-642651,-0.584017641,Yb2Ge4Ru3
mp-622576,-2.240877115,Ba2Sm(CuO2)3
mp-755511,-2.4076186,Y2Hg2O5
mp-980193,-0.455640861,Ti2H4Pd
mp-772533,-2.271083748,FePO4F
mp-18084,-3.269857628,BaTb2ZnO5
mp-12904,-0.909467237,HoAgTe2
mp-569416,0.028800844,C
mp-568293,-0.912055713,Ca3N2
mp-2802,-0.83241484,HfRu
mp-752856,-1.159957391,Li10Fe4S9
mp-740731,-1.614838153,Al2H12(SeO5)3
mp-978084,-0.503431982,PrVGe3
mp-372,-0.44452024,VPt3
mp-770950,-3.366253948,LiLa4MnO8
mp-643898,-2.627448446,CaP2H2O7
mp-510751,-0.774119951,CuO
mp-777760,-3.565033815,TbCeO4
mp-567858,-1.130820964,Dy12C6I17
mp-16804,-3.124483116,LiCaPO4
mp-541626,-2.644799835,K3Nb3Ge2O13
mp-774364,-2.51877443,LiCrPO4
mp-773454,-1.915088571,Li5CoO4
mp-567486,-1.085142057,BaSr2(PN2)6
mp-504802,-1.571500129,MgH12S2O9
mp-623088,-3.491002963,KTbF5
mp-697925,-2.031464569,Na5YbH4(C2O7)2
mp-30859,-1.002987781,Zr9Pt11
mp-626062,-3.14642689,U3(HO5)2
mp-773182,-2.216173644,Li4Cr3Sn5O16
mp-27687,-0.158317795,LiP7
mp-7002,-2.799523542,NaTiO2
mp-756686,-2.758971434,AlGaO3
mp-608655,-0.276168493,Mn5Si2
mp-772049,-3.13811667,Li2Ti2O5
mp-554856,-2.897856854,Na2Si2O5
mp-29337,-0.707566113,Tl3BS3
mp-28242,-1.096954504,Tl6SCl4
mp-989548,-2.726312699,Rb2NaTlF6
mp-1607,-0.228745918,YbCu5
mp-756467,-2.592675513,TiCu(PO4)2
mp-20742,-0.921335739,EuPSe3
mp-9223,-0.795786667,ScGeRu
mp-8250,-0.996775302,La(NiP)2
mp-1234,-0.483597387,LuAl2
mp-555515,-0.815690501,CuAg4TeO6
mp-37381,-4.167018082,SmOF
mp-1368,-0.100811504,Zn8Cu5
mp-745166,-3.075581704,Sr2Fe2H2OF10
mp-505727,-0.526944968,NClO
mp-757747,-2.295069772,LiSn4(PO4)3
mp-631515,0.92458446,CaHfZn
mp-19123,-2.373316824,Rb2LiVO4
mp-13827,-3.107244783,Ca(BO2)2
mp-765781,-3.046048253,LiVF5
mp-560323,-1.320170172,H11C4NO10
mp-1009733,-0.445228858,Ca2Si
mp-707055,-1.411380755,Na2GeH12S2O7
mp-12598,-0.801868779,PrPt3
mp-672645,-0.976468197,TiSiRh
mp-560105,-3.14076514,K3Ho(SiO3)3
mp-23166,-1.335410898,NpBr3
mp-769558,-1.9832691,LiMn(CO3)2
mp-722980,-0.859774241,Hg4HN3O10
mp-6356,-0.90894989,Cd2GaAgS4
mp-614981,-2.226300695,Ba2Nd(CuO2)3
mp-5951,-0.269852063,CeMnNi4
mp-975591,0.284126486,NdHf
mp-23331,-2.483201806,Si3(BiO3)4
mp-899,-0.415713692,InRh
mp-780301,-2.807953733,Mn6OF11
mp-322,-0.537004077,TlS
mp-667291,-1.526089887,ReHg2O5
mp-999201,-0.199826194,Sc2MnSi
mp-768257,-1.955166446,Na4Bi2C4SO16
mp-862372,-0.817615465,Sc2RuRh
mp-23911,-1.508966905,MgH20S2(NO7)2
mp-10635,0.010187693,SnSb
mp-27747,-0.251194412,PdI2
mp-6250,-3.314593681,BaTm2ZnO5
mp-17977,-0.073993654,Fe12As5
mp-767740,-2.646195174,V(PO3)3
mp-557420,-2.967177111,KBaB5O9
mp-677638,-2.811649531,Na27Ca3Al5(P2O7)12
mp-972022,-0.644787651,Tm2ZnRh
mp-680197,-0.369488947,KAgC2(SN)2
mp-976181,-0.408709384,NaBH4
mp-721753,-1.520059131,CsH7(C2O5)2
mp-23222,-0.528195819,Li3Bi
mp-756281,-3.796710995,TmAlO3
mp-24831,-1.467680703,DyH4I3O11
mp-11352,-0.587921763,PrAl5Ni2
mp-861953,-0.602636823,AlFeRh2
mp-705541,-1.754136221,V10O9
mp-631525,0.899516371,KHg2B
mp-22205,-0.089772518,InN
mp-770839,-2.104841939,LiCr(CO3)2
mp-866301,-1.306245491,BaBSbS4
mp-16627,-0.495972596,TmAl7Au3
mp-760679,-1.60957368,Cu3OF5
mp-771050,-1.438366389,Li7MgNi7O16
mp-705562,-2.379083219,Mo4P5O24
mp-571642,-2.790520621,CaCl2
mp-583278,-0.654434144,Cs3Mo15Se17
mp-11234,-0.12114801,PrMg2Ag
mp-17832,-3.040687725,RbBaPO4
mp-16180,-2.184561572,Na6S2O9
mp-556983,-3.11451383,LaGaO3
mp-20327,-0.817349902,TiP2
mp-4001,-1.885238576,BaTaS3
mp-336,-0.089746933,SmCo2
mp-675741,-2.488230622,La10US16
mp-12661,0.020662988,Cd3In
mp-6951,-2.717134179,RbCdF3
mp-779056,-2.621952657,Li2FeP2O7
mp-560365,-1.385957096,Rb2Zr(IO3)6
mp-760165,-2.303228688,LiCu2(PO3)5
mp-760179,-1.284470584,Cu3(OF)2
mp-570168,-1.426741319,Rb2ZnBr4
mp-776274,-1.875219042,Na5Bi2As(CO4)4
mp-9078,-0.905736422,BaPIr
mp-764885,-2.314399029,LiFe8(BO3)8
mp-685968,-1.842657536,Ba6Nb5S17
mp-540773,-1.779069254,Ca2GeS4
mp-17794,-0.792904904,HoGe2Ir
mp-755420,-3.608318125,SrSm2O4
mp-3143,-2.31570942,Na2SO4
mp-22968,-1.121895869,NaClO4
mp-30208,-0.868991459,YCuP2
mp-3323,-3.629117905,SrZrO3
mp-8447,-3.449023579,K5Ti3F14
mp-625789,-1.490203346,Sn3(HO2)2
mp-761471,-1.240884552,Co5O8
mp-28477,-1.382069019,Sr(ClO3)2
mp-542435,-1.058141244,Li3ScN2
mp-561499,-1.803710047,Dy3CuSnS7
mp-15698,-1.065385813,Sr5As3
mp-30981,-1.392956956,Te(HO)6
mp-762671,-1.828485197,Mn2(CO3)3
mp-570419,-0.526321858,Zr3Al3C5
mp-864767,-0.181246286,YbZn11
mp-781049,-3.140316683,V4OF11
mp-14970,-2.880673715,BaLaCuBO5
mp-977387,-0.347288654,TbAgHg2
mp-23922,-0.326840153,HN
mp-7883,-0.439661755,Ca(GeAu)2
mp-634657,-0.943970316,NaHS
mp-755054,-2.690337915,Ti3N2O3
mp-10960,-3.358395428,Tb2Ti2S2O5
mp-766350,-2.474812095,LiSiBiO4
mp-31078,-1.002339951,CeSiRh2
mp-32959,-1.324532177,H2O
mp-754408,-1.714814296,Ba2SrI6
mp-558941,-3.428145838,LiYSiO4
mp-768095,-2.405517152,KV13O20
mp-624253,-0.703546496,Nb4Co2PdSe12
mp-21233,-0.934331839,Ti3InN
mp-770805,-2.982444969,Li6Hf2O7
mp-504927,-1.371177283,CrCuO4
mp-638236,-1.095235623,OsC4(ClO2)2
mp-20217,-1.487078287,EuPS3
mp-867528,-1.674802033,Ge7H8N2O15
mp-861914,-0.701504584,Ba3Co(CN)3
mp-568555,-1.026208199,SmSi2Rh3
mp-707734,-1.599977967,AsHPb4(ClO)4
mp-1908,-0.789730895,Pr5Ge4
mp-777292,-2.016596744,Ba3Y2Br12
mp-756137,-2.636941817,Li3Nb6O11
mp-16526,-0.861148919,AlPt2
mp-17337,-2.603684032,RbAsOF4
mp-631555,0.588009447,MnVNi
mp-755205,-2.252213358,Zr2N2O
mp-12017,-0.419898574,CeAl4Ge2Au
mp-767222,-2.476805146,LiFe2(PO4)2
mp-769404,-2.525261486,YSeO3
mp-976408,-0.161028412,Li3Ag
mp-25225,-1.737793729,Ba2(CuO2)3
mp-583193,-0.897342434,Cs3PSe4
mp-862336,-0.99007538,Sc2IrPd
mp-556679,-3.237210982,Na2Ca3Si3O10
mp-11407,-0.436450137,GaPt3
mp-978563,-0.463445909,SmHoIn2
mp-10835,-1.966369831,RbSm2CuS4
mp-28334,-0.463871362,Tl4SiSe4
mp-15433,-0.358751479,K2Ga2Sb3
mp-22680,-0.321762153,DyInCu2
mp-29489,-1.978743204,P4SeO7
mp-556100,-1.966474768,Si(Sn3O4)2
mp-570272,-0.27914706,Tb2Mg3Ni2
mp-11091,-0.898767074,NdMgPt
mp-720461,-1.190185038,P3H22C3N9O11
mp-770589,-2.698673432,Li3Al2FeO6
mp-4628,-1.077664635,ZrSiSe
mp-2767,-0.467006698,TiGa
mp-15642,-0.395378983,SrMgSi
mp-756035,-3.337453872,LiTi4O8
mp-769048,-1.403023786,Li3NbS4
mp-770581,-2.306152275,MgMnO3
mp-569512,-0.942961914,SbICl8
mp-753605,-0.9407544,LiCuS
mp-768084,-2.467879643,Li8V11O22
mp-643776,-1.535680583,Na2ZnH4(SeO5)2
mp-29287,-1.344496943,Cs3CoBr5
mp-776715,-2.900807942,Li3Fe2F7
mp-763491,-1.61957389,Fe4O7F
mp-734123,-2.307582826,RbSrP3(HO2)6
mp-680671,-0.126833708,Mg4Zn7
mp-698587,-2.476989441,TiNiO3
mp-19287,-2.95991613,NaV(SiO3)2
mp-774382,-3.034131081,Li2MnF4
mp-759472,-1.337412407,LiCu(HO)4
mp-770092,-3.204814013,HfP2O7
mp-8640,0.07117866,Hf
mp-27335,-0.08460441,NaAlSi
mp-767341,-2.772866637,Li2ScPCO7
mp-758658,-3.443856723,CaAl2(SiO4)2
mp-13007,-0.391250014,PrCrGe3
mp-510608,-1.516911751,ZnCuAsHO5
mp-22750,-2.32272722,P2Pb3O8
mp-17929,-1.543939016,RbHo2Cu3S5
mp-861651,-0.38217876,Li2PdPb
mp-675214,-2.775344477,Rb2Bi3F11
mp-756443,-3.835653675,Er2TiO5
mp-772150,-3.258165237,Li2Ti13O22
mp-706367,-2.433018623,KCaP3H4O11
mp-3318,-3.283675088,Na2BeF4
mp-863722,-0.674191934,Pm2IrRh
mp-37859,-1.945801641,Sr(PrSe2)2
mp-28520,-0.520322872,Rb2SnTe5
mp-759386,-4.073242495,Ce2Th2O7
mp-13512,-0.539427851,CaNiGe2
mp-756715,-3.43008175,Gd3InO6
mp-343,-1.473940439,PrN
mp-977592,-0.571862831,Bi2Rh3S2
mp-28728,-0.437502486,K6Sn3As5
mp-768906,-3.150734241,YBrO
mp-30536,-0.136769481,V5Sb4
mp-28412,-0.774034016,Ho2Ni12P7
mp-570823,-0.576211923,Ba(BSe3)2
mp-691043,-2.934757033,Ba10Pr5Nb(Sn2O15)2
mp-1971,-0.259944522,HoCu
mp-2531,-0.104197281,Er2Co17
mp-14484,-2.400810966,KNaLi2(SO4)2
mp-568966,-0.368347899,NdBC
mp-862631,-0.934234123,Ba2SbAu
mp-720379,-2.362944982,K3NaP4(H2O7)2
mp-606102,-0.464042298,Ce3In3Ru2
mp-9270,-0.691545692,SbIrS
mp-2628,-0.198454288,DyCo2
mp-12097,-1.069375867,Sm(SiIr)2
mp-754698,-2.818152136,NbO2
mp-4453,-0.876639962,TlNO2
mp-559927,-2.962758899,Tb2Cu(BO2)8
mp-30726,-0.357528998,YHg3
mp-682284,-1.863397072,Zn3In2O6
mp-555369,-1.614209305,SrCuH6O5
mp-3889,-2.62474481,NaBO2
mp-1018121,-0.627418079,TiPd2
mp-11814,-0.290876576,Rb2Au3
mp-29597,-1.571124681,LaBN2
mp-3896,-1.057489559,Y(SiIr)2
mp-17441,-1.364443566,Mg2GeS4
mp-556094,-0.972232412,AgBiSCl2
mp-975564,-2.349505672,PuBO3
mp-867348,-0.567666678,DyMgSn
mp-510453,-0.730232988,Ag3RuO4
mp-30375,-0.728365183,ErInAu
mp-758201,-2.821802387,LiTiP2O7
mp-768137,-2.232473711,Na2SnPCO7
mp-530984,-3.368881153,Al22PbO34
mp-758020,-1.451379598,LiCu3(CO3)3
mp-560189,-2.481908478,NaLi2BO3
mp-9610,-0.834007463,Li2CN2
mp-769532,-2.122802042,Na4V2C4SO16
mp-22367,-1.166911716,PdPbO2
mp-585266,-2.333992513,MnP2O7
mp-680502,-0.945960033,La10Ga5Br4
mp-583266,-0.069368015,MgZn
mp-23550,-1.992279144,KBrF4
mp-561886,-2.938745427,CsNd(PO3)4
mp-20685,-0.120952075,Cr3Ge
mp-13463,-0.213386573,FeNiPt2
mp-675436,-3.688431203,Sm2Zr2O7
mp-555159,-3.728211569,Pr2O3
mp-8800,-0.190393321,TlCu3Se2
mp-762248,-2.378669376,LiSb3(P3O10)2
mp-776502,-3.028520394,LiTi2(PO4)3
mp-767279,-2.801759161,Li2DyPCO7
mp-16495,-0.162825985,AlCrFe2
mp-15939,-3.28319805,SrAl2B2O7
mp-974108,-0.737005831,NiPbO3
mp-570278,-0.425336959,Yb3Ge8
mp-1018097,-2.881827801,BaCaO2
mp-27898,-1.048077773,Zr3AlN
mp-1001788,-0.017526544,ZrB6
mp-23980,-1.69114208,Cs3H(SeO4)2
mp-530429,-4.133962908,YZr3F15
mp-559484,-2.554828406,Ba11(OsO6)4
mp-631361,0.728693552,SrZr2Nb
mp-554371,-2.968210411,CaSiBHO5
mp-770891,-2.543533043,Ti3Cr3(SbO8)2
mp-744081,-0.943024242,K6W2N4O3
mp-753794,-3.414077214,Hf2P2O9
mp-567777,-1.071676635,La9Sb16Br3
mp-4856,-0.462733544,HoGa5Co
mp-669357,-0.590421946,CdI2
mp-7592,-1.195905161,AgF
mp-1009504,-0.538448787,EuZnGe
mp-21560,-1.572273118,CuAs2PbO7
mp-764735,-1.572589781,Li5Mn2Cu5O12
mp-780274,-2.547485905,Hf2N2O
mp-1008653,2.236128572,AgC
mp-865568,-0.198236356,ThScTc2
mp-626721,-1.560448598,RbHO
mp-18838,-2.594591218,K2MnSO4F3
mp-12262,-3.426780678,CsBeF3
mp-16934,-3.536728198,BaLaAlO4
mp-684816,-2.996263046,K2NaNb(OF2)2
mp-18846,-1.381909073,Na4(CoO2)7
mp-978973,-0.37768278,Sm2ZnHg
mp-559931,-3.227775362,VF3
mp-567702,-1.526524855,CsReCl4
mp-554280,-3.37963913,RbTh2(PO4)3
mp-23008,-1.830670599,PbBrF
mp-32727,-1.850844233,Y3Se4
mp-21297,-0.256434593,LiSn4Ru
mp-977574,-0.869482334,HoSbPd2
mp-3093,-0.486705025,ErB2Ru3
mp-30979,-0.859059575,GaPS4
mp-978093,-2.461194769,Ho2S3
mp-557498,-1.426095191,NaBi2AuO5
mp-21491,-0.34000263,Y3GaCo3
mp-33432,-2.014904333,Mg(FeO2)2
mp-4971,-0.793991293,K4Sn3Se8
mp-768961,-3.061468829,YB5O9
mp-14871,-1.066749619,Li16Ta2N8O
mp-780157,-1.659238084,LiFeH12(SO7)2
mp-999133,-0.365140333,TaPd
mp-559159,-1.25510271,Cu4As2O9
mp-780314,-2.561817272,Li3V2P4(HO8)2
mp-8761,-0.266116885,NdCoC2
mp-600051,-3.274683568,SiO2
mp-18101,-1.138339975,K2Cd3S4
mp-696949,-1.972588292,Li3TeHO4
mp-541495,-2.934754,KY(PO3)4
mp-567076,-0.436978566,Li2BiAu
mp-555482,-3.096433272,KZrH2OF5
mp-771074,-2.085481407,Li7CrO6
mp-8881,-0.482778385,AlAs
mp-19900,-0.691090886,La(GeRu)2
mp-3286,-0.371688098,Ce(AlZn)2
mp-10477,-0.422071482,RbAg3Se2
mp-971701,0.35908984,ZnAs3
mp-999446,0.40008595,Nb3Cr
mp-19502,-3.354257446,BaTi18Mn3O38
mp-775216,-2.003826603,LiVTeO5
mp-20971,-0.385301009,SnPt3
mp-7249,-3.084118658,Ba3Nb2ZnO9
mp-12287,-3.734406234,La3NbO7
mp-989497,-1.219320483,LaWN3
mp-974066,0.007245721,Nd3Sm
mp-559067,-1.326980497,KNa2AuO2
mp-866019,-0.338507474,LiNdTl2
mp-31256,-2.594687771,U(SbO3)2
mp-571471,-0.37367185,NbCoTe2
mp-510654,-1.690973358,Cu2PHO5
mp-556195,-2.130490104,Na2AlB(As2O7)2
mp-30434,-0.385247328,BaTl2
mp-865122,-0.263285731,NaNdTl2
mp-861510,-0.603565086,Pr2SnHg
mp-757375,-2.646048765,Ti2Sn3O10
mp-37695,-0.554305787,Ag7NO11
mp-29934,-3.153184553,Zr6Ag7F31
mp-770676,-1.535541689,Li2CrH8Cl5O4
mp-504935,-1.60907577,K2PbO3
mp-7499,-0.761783496,Tl2Sn2S5
mp-23930,-0.487708204,H4CSN2
mp-772633,-3.745076306,SrSc2O4
mp-772659,-2.120060018,Li3CrO4
mp-769495,-2.125367553,Na5Ni2P2(CO7)2
mp-570755,-1.116676105,KTaN2
mp-19479,-2.406305528,Na5La(MoO4)4
mp-765504,-1.887894651,Li8Fe3Co5O16
mp-3884,-3.052614667,Ho2Sn2O7
mp-766303,-1.607722868,Ba2Ca7I18
mp-974617,0.065049247,Hg3Pd
mp-558269,-1.918855619,Ce2SiS5
mp-12265,-3.060860897,SrCuF4
mp-560121,-1.245324066,H5CNO3
mp-560515,-1.689756005,K4Ru2Cl10O
mp-8347,-1.669037448,BaMnS2
mp-867873,-0.202506362,LiTm2Al
mp-1019714,-3.305194119,CsCa10(PO4)7