id,band_gap,pretty_formula
mp-643245,1.5738,K3MnH5
mp-770575,2.6156,LiCrPO4F
mp-735475,3.3082,CoB12H28(NO15)2
mp-768788,3.9434,Li3Bi(BO3)2
mp-37947,2.7313,Na4C2O5
mp-571452,1.3151,KPSe3
mp-770392,3.152,BaLaBr5
mp-961678,0.8689,ScCoTe
mp-775900,1.2606,NaLiCu(PO3)3
mp-1575,2.0461,CaC2
mp-18859,1.0282,Sr5Cr3O12F
mp-6528,6.69,Cs2NaAlF6
mp-34322,2.7262,Dy2Ti2O7
mp-554483,3.4222,KCd3H8Cl7O4
mp-769456,1.0854,Na5Fe2P2(CO7)2
mp-29246,1.1184,Cd2P3Cl
mp-770779,1.6264,VCrO3
mp-555359,2.7804,KMnF3
mp-775336,0.8046,Li4V2Co3Sb3O16
mp-28988,1.5438,In7Br9
mp-648414,1.1097,V2PS10
mp-769232,3.7761,Dy2(SeO4)3
mp-561303,2.1344,NaSb(PS3)2
mp-753055,1.6307,TbBi5O9
mp-680183,2.1236,Te5As2Br4O5F26
mp-759069,6.0788,B(HO)3
mp-19239,2.3029,Mg6MnO8
mp-780109,0,Li4Cr5(P3O11)2
mp-757002,3.8936,KZrPCO7
mp-28514,4.3575,Ba(BrO3)2
mp-556994,5.3498,SiO2
mp-756935,2.9032,Li3SbO3
mp-780196,0.4103,LiMnSiO4
mp-16771,3.0277,MgSe2O5
mp-765902,1.9126,ZnNi4O5
mp-758842,3.1797,NbH14C4NO14
mp-752773,1.0962,Li4CuF5
mp-27742,1.3581,K2CdO2
mp-766163,1.1263,TiSn9O20
mp-755707,2.8256,K3LiTi7O16
mp-23197,1.883,TlI
mp-989563,1.8121,Rb2NaTlCl6
mp-23476,1.7985,Cd7(P2Cl3)2
mp-7618,5.3439,Cs3YF6
mp-557531,3.7117,Pb2S(O2F)2
mp-7972,3.5458,RbLaO2
mp-1020628,4.0962,SrGe(PO4)2
mp-754226,3.3369,YLuO3
mp-22981,2.7745,TlIO3
mp-555202,5.0309,KTeHOF4
mp-744639,2.1698,Cr2Hg2H2O9
mp-7013,5.0933,Ho2Be2SiO7
mp-32662,1.5008,WO3
mp-703352,2.5368,UP2H6O7
mp-733844,3.9896,Na3GaP2H2O9
mp-4632,5.4085,Sr3(PO4)2
mp-559584,2.3521,LiCaNiF6
mp-760231,3.0522,LiSn2(PO4)3
mp-7812,3.2779,GeO2
mp-622171,2.5139,VSb2O5
mp-8187,1.9786,K2ZnO2
mp-763965,1.5217,V2(OF)3
mp-560687,0.4605,Nb3Te8I7O
mp-773547,2.8501,Li3Fe2OF5
mp-4672,2.177,TbPS4
mp-557778,3.2071,RbNbSiO5
mp-773116,1.9465,La20S29O
mp-769409,3.5484,Y4Ga2O9
mp-770759,3.7031,LiBiCSO7
mp-764036,0.4221,Li3Mn3CrO8
mp-703398,0.2922,CuH20Se2(NO7)2
mp-7128,1.9278,Cd(AsO3)2
mp-3502,3.3008,Zn2Te3O8
mp-849783,2.2379,TeH14C3S3(N3F2)2
mp-978275,1.4635,MgB7
mp-9755,4.1244,HfGeO4
mp-707206,3.6426,TeP6H30(NO4)6
mp-753610,3.5646,BaCaI4
mp-770343,2.7009,Li3V(BO3)2
mp-756908,3.2842,Li3SbO3
mp-14448,1.1018,Ba2SiTe4
mp-779907,3.4271,LiMnPH2O5
mp-775164,2.2504,Li2NbCr3O8
mp-679944,1.5867,Li4Re6S11
mp-680172,2.3544,CdI2
mp-24409,3.7095,PH4I
mp-562283,1.6616,GePb3O5
mp-675189,0.4372,Ho7(CuTe4)3
mp-540310,4.435,Li2Mo(PO3)5
mp-10481,0.2562,RbAg3Te2
mp-752717,4.5002,La2SiO5
mp-865973,5.4991,PHPb2F10
mp-37836,4.9082,Al(HO)3
mp-758234,3.1945,P2Pb3O8
mp-722369,4.6581,Na3B5(HO5)2
mp-867953,3.9865,Ba2CaI6
mp-42599,2.7187,NaYTiNbO6F
mp-743571,2.2989,Mn2Si(H2O3)2
mp-752638,2.4611,LiCuCO3
mp-554433,4.755,KAl(SiO3)2
mp-850445,2.9931,Na3Zn4As3H12O19
mp-673126,4.3239,LiSb(PO3)4
mp-8234,0.813,BaTe3
mp-756672,3.836,Li4Si4Bi2O13
mp-764111,3.9641,NaFe(PO3)3
mp-22517,0.5529,EuYSi4N7
mp-17077,6.8082,K2YF5
mp-19432,3.2404,KNaV2O6
mp-1019581,4.9224,CaS3O10
mp-696794,3.6244,RbHSeO4
mp-3718,0.2418,ThTeO
mp-779511,3.5116,Ba2MgO3
mp-27346,2.4938,Al2Hg3Cl8
mp-28567,4.8641,LiBiF4
mp-9515,5.5435,Al2SiO5
mp-18684,7.221,KPF6
mp-19361,2.6812,Cr2(SO4)3
mp-15701,3.4803,MgSiN2
mp-559779,2.5583,Nd3SiS6Cl
mp-777698,1.4398,V2O3
mp-764701,0.4565,Li8Mn5O10
mp-763206,0.8457,Co3OF5
mp-556185,3.4609,RbNaTiO3
mp-573119,0.3672,BiRhO3
mp-776684,4.07,Li3FeF6
mp-891956,2.3503,Ca10V6O25
mp-27384,2.438,AgIO3
mp-567753,1.223,La3CuSnSe7
mp-774243,1.3688,LiCrSnO4
mp-776523,2.5061,NaLi3Ti2Al2(PO4)6
mp-13068,4.0808,Lu2O3
mp-23318,1.9601,BiSCl
mp-6127,0.8549,BaCu(Si2O5)2
mp-4428,4.726,CaSiO3
mp-775327,1.5658,Li2MnV3O8
mp-765463,5.8794,ErH3(SO4)3
mp-557171,0.8702,Na2Cu(PO3)4
mp-17539,3.715,KAsOF4
mp-19514,1.9683,Sr2CrO4
mp-753315,3.1534,Mg3ZnO4
mp-989504,2.73,Na2LiNF6
mp-23227,0.4302,CuBr
mp-768592,1.8592,Na2SnBPO7
mp-568231,1.2465,RbMnBr3
mp-28345,0.2892,Zr6CI12
mp-769377,1.8163,SbSO4F3
mp-769383,3.4048,RbB3Te2O9
mp-780496,1.4093,Fe3OF5
mp-760491,1.8325,Ce4Y2O11
mp-779884,2.4118,Sr5W3O14
mp-779282,0.5129,Li9Bi5O13
mp-27980,2.0472,U(OF)2
mp-561469,1.2026,Nd6S4N3Cl
mp-557830,0.91,Na2Bi5AuO11
mp-567873,1.5901,RbSmGeSe4
mp-769384,4.9346,Li3NbOF6
mp-639511,5.6509,SiO2
mp-768878,1,CuReO4
mp-768292,2.3309,Li2BiBO4
mp-553374,2.5747,Cs4Sb2O5
mp-558239,1.517,Rb4U5O17
mp-9639,0.3563,BaCu(SeO3)2
mp-625961,2.0928,H5IO6
mp-559123,4.0729,YSiNO2
mp-978553,0.892,SiAs2
mp-18837,3.6132,KSc(MoO4)2
mp-29209,0.3968,Ba(MgBi)2
mp-849260,0.7234,ReH8(I3N)2
mp-555485,3.3463,Rb2GdGa(SiO3)4
mp-10488,1.6088,Cs2Ti(AgS2)2
mp-27626,1.0131,Ge19(AsI)4
mp-11706,2.0927,Ho2HgO4
mp-674459,6.854,NaErF4
mp-27564,3.6846,Na4B2O5
mp-779690,1.9174,Hg(TeO3)2
mp-510566,1.7775,La3CuSnS7
mp-642804,0.3375,KCu2P2H3(O4F)2
mp-556005,2.0467,ZnS
mp-559575,1.3837,AsSe(IF2)3
mp-23092,2.62,Ba2TaBiO6
mp-753405,0.4592,LiCuF3
mp-3195,0.3131,Sr11(CdSb2)6
mp-7531,3.9435,Ca4Al6O13
mp-676274,0.7639,Tl9SbSe6
mp-3125,4.0941,K3Zn2F7
mp-989622,1.4275,BaWN3
mp-23700,5.3401,RbH2OF
mp-2402,1.2341,NaSi
mp-676341,0.2493,Na2UF6
mp-558637,1.6418,AgTeO3
mp-543056,2.9891,Mg7As6(HO6)4
mp-17025,4.4178,Sr3Y(BO3)3
mp-558703,5.1151,Al3Pb5F19
mp-756742,4.5901,Lu3AlO6
mp-971837,0.7726,ZnCdTe2
mp-690702,3.4112,SnPHO4
mp-763336,0.7574,Li2Cr3CoO8
mp-705551,1.1404,Fe15O16
mp-554818,3.0687,KTe3O6F
mp-13627,1.6995,Y3ReO8
mp-989643,0.4882,LaCoN3
mp-766931,3.3892,Li2Si2NiO6
mp-20820,3.5995,Pb(NO3)2
mp-626127,1.6936,H7NO6
mp-39684,2.3317,GdTiCdSbO7
mp-754005,3.4604,Mg(CO2)2
mp-554002,4.9968,Al(HO)3
mp-1017514,4.1935,MgSiN2
mp-567437,1.3419,Pd(Se4Cl)2
mp-569522,0.4901,MnP4
mp-540833,1.7421,V2Co3O8
mp-555439,6.7392,CsLi3F4
mp-752656,3.131,BaLa2O4
mp-16828,5.6046,Li3B7O12
mp-24396,5.1964,MgH14SO11
mp-705134,3.7072,In2(MoO4)3
mp-771189,2.1187,Ba4Ti3O10
mp-1020060,5.5096,LiB(S2O7)2
mp-35907,1.0813,La5TlTe8
mp-554686,2.6713,MgAs2(XeF9)2
mp-12878,3.7028,Sr2YSbO6
mp-927,0.8231,CuP2
mp-757156,2.8195,Sn(PO3)4
mp-31250,3.0215,BiBO3
mp-30143,2.0411,U(IO4)2
mp-7289,0.5885,K2Te3
mp-26630,2.7356,TiP2O7
mp-9855,0.7602,KHfCuS3
mp-540313,4.1886,LiFe(PO3)3
mp-776361,0.939,Ti2N2O
mp-998198,4.085,RbCaBr3
mp-740750,4.8057,Na4P4(H2O5)3
mp-1394,1.3243,Rb2O
mp-30123,0.7264,Hg2SeO5
mp-770680,2.1141,Li9Mn2AlO8
mp-559391,4.8318,Pr3Si2Cl3O7
mp-29920,0.8347,Rb5Au3O2
mp-772959,5.477,Er2P4O13
mp-558330,2.0229,IClOF
mp-28234,4.3195,CaAl12O19
mp-29060,1.401,Ba5(SiN3)2
mp-554025,4.0481,SNF
mp-754377,3.1657,K4TiO4
mp-10486,1.5883,Cd2As2O7
mp-557027,4.3938,Rb2Be2Si2O7
mp-764344,2.9324,Li2FeSiO4
mp-771545,0.6453,Li4Mn5CoO12
mp-18642,1.5337,Ca(YS2)2
mp-8256,2.091,ZnPtF6
mp-761872,0.5711,Na2Sn2O3
mp-753257,0.828,LiCuF4
mp-772596,0.2638,Li2FeNi3O8
mp-10476,5.7495,NaEr(SO4)2
mp-24144,4.8217,Na5ScH4(C2O7)2
mp-27579,4.4173,Na4P2O7
mp-7572,5.4889,MgSO4
mp-23497,3.1982,Li2ZnI4
mp-558660,3.623,Mg2BiPO6
mp-557561,2.4604,Sm6Si4S17
mp-743573,2.5406,KBaFe2(PO4)3
mp-18795,0.7725,Mn3TeO6
mp-22232,0.7903,TlInSe2
mp-10572,4.6825,NaPN2
mp-23582,1.4216,KLi6BiO6
mp-5914,3.3011,Li3BN2
mp-560331,1.8945,K2ZrS4
mp-779608,3.1069,Ba3(BO3)2
mp-540146,1.0758,MnPO4
mp-6276,3.6882,K2Cd2(SO4)3
mp-6598,0.8983,K2Cu(PO3)4
mp-978489,1.2251,SiPbO3
mp-705495,5.5273,CaB3H5O8
mp-541096,2.1254,CsUNbO6
mp-600067,5.74,SiO2
mp-780764,0.3499,LiCuP4O11
mp-16813,1.9526,BS4N4F3
mp-695816,2.4151,LiFeP2O7
mp-757791,4.0156,SmY15O24
mp-559984,1.2244,Rb8AlAu3O4
mp-7958,3.8889,KLaO2
mp-10495,1.0787,NdCuS2
mp-23444,2.857,AsCl2F3
mp-653450,0.2108,CuAg7As4ClO14
mp-690112,0.4912,H(WO3)2
mp-6404,4.0726,BaCa2(PN2)6
mp-643260,2.2799,Na2H4Pd
mp-775274,3.1228,K2CrO4
mp-27047,1.4878,Li2CuPO4
mp-14941,5.2252,Al2Pb3F12
mp-771328,1.7324,Rb4PbO4
mp-34569,1.5821,Mg(FeO2)2
mp-867929,1.7943,Sm3SiAgS7
mp-776475,5.2158,Al2O3
mp-753594,2.6481,BiOF
mp-867583,0.2936,AgSbO3
mp-561202,1.0127,K6NbAs3O
mp-763022,1.726,FeOF
mp-772077,2.9223,BaYI5
mp-14387,4.473,Tb3Al5O12
mp-8603,1.4199,RbAgO
mp-769026,1.3025,Li2BiO3
mp-28275,4.8518,Rb2PrCl5
mp-704204,2.4,Li2MoP4O13
mp-754920,6.6196,BaYF5
mp-6416,3.3681,Ba5Er8Zn4O21
mp-773598,1.3677,TiFe5(PO4)6
mp-680087,2.021,ZnS
mp-778079,6.4487,BaYF5
mp-28222,1.9084,Rb3Sb2Br9
mp-558491,6.0694,BaAlBO3F2
mp-849797,4.5168,B6H10C2SBr
mp-27938,1.7794,Tl6SI4
mp-10834,0.9449,RbNd2CuS4
mp-626219,4.7683,H5ClO6
mp-5878,3.7137,KZnF3
mp-765172,1.0279,Fe3(OF)2
mp-766558,0.502,NaMn3O6
mp-615850,2.4616,Pb2Se(NO4)2
mp-753171,0.5794,Li2CuF4
mp-699466,4.0413,ZnPH7C2N4O5
mp-19402,1.0723,V4Ag2O11
mp-779720,3.9705,Li5LaO4
mp-626568,3.8913,Al(HO)3
mp-559798,4.9082,NiF2
mp-542704,4.4176,CsHCO2
mp-582080,4.5826,Cs3LaCl6
mp-559061,2.2077,K2Hg2SCl4O3
mp-30243,3.7709,Mg3(HO2)2
mp-757218,1.681,K4Na2H18Pd(IO10)2
mp-559251,1.2898,K3Cr2(PS4)3
mp-4452,2.1155,Cd(GaS2)2
mp-754646,2.9732,Dy2Ge2O7
mp-774413,0.6777,MnV3(PO4)6
mp-771081,4.0903,Li3Ni(BO2)5
mp-735489,3.209,KCaCrH10C6O17
mp-780534,4.0007,Rb(BH)5
mp-30301,5.7447,LiClO4
mp-770427,3.955,BaLaCl5
mp-6441,4.4626,K2PO3F
mp-745148,1.6651,MnP2HO7
mp-555056,1.6653,SbS2NCl6
mp-8870,3.4544,LiMgAsO4
mp-546679,1.0694,Nd2AlNO3
mp-7609,3.3125,SbOF
mp-7863,1.2253,Rb2Sn2O3
mp-29626,1.6512,Na4Sn3S8
mp-11189,4.6771,Li2MgSiO4
mp-780312,1.0737,Li5(FeO2)4
mp-767952,0.9175,NaMnPCO7
mp-756444,2.0821,Ca2Ti6N2O11
mp-16135,2.2864,Sm3NbS3O4
mp-625616,4.2009,H9BrO4
mp-29292,3.3335,B10H13
mp-683943,1.668,Na2MoC3SeN3
mp-642823,1.0648,Dy2V2O7
mp-3368,2.9482,LiNb3O8
mp-581425,2.0194,ZnS
mp-540064,0.9591,LiCo(PO3)4
mp-764552,1.745,LiFe2(BO3)2
mp-554678,2.4562,CaGe2O5
mp-1020146,5.4471,Na2LiB5(PO7)2
mp-770125,3.8831,BaLaCl5
mp-557998,1.804,Dy3CuSiS7
mp-774946,0.648,Li2V3SnO8
mp-22967,0.3768,Li2FeBr4
mp-708992,5.3867,AlH20C2S2NO14
mp-756812,2.1535,Rb3ErO3
mp-989565,4.4192,Rb2TlGaF6
mp-23454,2.0607,CsAgBr2
mp-567948,0.5428,Rb2Pd(IBr2)2
mp-6667,5.3171,CaBPO5
mp-14100,0.8489,Cd(RhO2)2
mp-550805,1.4719,LuBi2ClO4
mp-23905,5.0249,KMgH9(CO5)2
mp-559088,2.9987,La2Si(IO2)2
mp-676121,0.3739,Ag3SI
mp-690703,5.2435,BaH4(ClO)2
mp-39681,2.7329,NaTi2BiO6
mp-17714,5.5334,Ho4(B2O5)3
mp-619928,1.3186,Zr(Se2Cl3)2
mp-978847,0.4258,SrGaGeH
mp-15514,1.1893,NaSe2
mp-558984,3.6787,GaTeO3F
mp-757301,3.9269,LiSn(PO3)3
mp-18332,2.3855,Lu2ZnS4
mp-16600,5.6112,Dy2B4O9
mp-22538,2.3394,Li8PbO6
mp-581967,1.6747,Nb2O5
mp-638261,4.0155,La2GeO5
mp-567178,2.3974,PbI2
mp-776500,1.2945,Li3V2(OF)4
mp-905,6.0429,LaF3
mp-21858,1.9105,UO3
mp-773206,1.0325,Li3CrSiBO7
mp-27202,4.1569,B9H8S
mp-707151,5.0971,Na2B4H20O17
mp-570053,1.3163,Bi8AsAuCl9
mp-686183,1.9832,Zn(Bi25O38)2
mp-13568,0.3371,NdS2
mp-696944,3.6021,LaHBr2
mp-763003,3.1237,LiMnF3
mp-23719,3.204,BeAlH5
mp-776661,1.5159,NbV3O10
mp-16281,0.55,Cd2Sb2O7
mp-772105,3.8856,Li2Zr2O5
mp-554688,0.5949,Ba6Hf5S16
mp-556578,3.2428,Cd(IO3)2
mp-541168,5.4715,RbTm(PO3)4
mp-567913,1.0689,CsAuSe3
mp-34932,2.1864,CaHN
mp-8683,0.3468,K5As2Au
mp-756439,2.7355,SrLaBr5
mp-763344,1.1398,LiV3O8
mp-555132,1.9323,BiXeF9
mp-773498,1.9929,Na6Sn2O7
mp-778754,3.1726,Li8MnFe7(BO3)8
mp-7651,4.6559,ThSiO4
mp-557407,2.1426,K3NaUC3O11
mp-31075,1.3168,Hg3(SeBr)2
mp-697981,2.763,Cd3H2CSeO8
mp-5859,5.508,AlPO4
mp-541819,1.8304,Rb2Hg(BSe)9
mp-562338,2.0194,USeO6
mp-20329,0.2441,InAgO2
mp-21563,4.2985,SrAlBO4
mp-771699,0.9844,Sb2O5
mp-1019378,3.3491,Al3GaN4
mp-758038,1.987,La2Ti3O9
mp-774236,3.1149,Li3CrSiCO7
mp-766267,4.0624,Y7TmO12
mp-32586,1.7868,Nd2S3
mp-558126,4.4533,LaH4S2NO8
mp-30091,1.736,MgB9N
mp-27563,1.4513,Rb2In4O7
mp-765416,3.0311,Li2Fe2Si8O19
mp-17250,3.2396,K3SbO3
mp-558713,4.6936,LiAlSiO4
mp-973441,1.0587,La(ErS2)3
mp-10510,6.0443,BaAlBO3F2
mp-9361,2.7025,RbLaS2
mp-7914,3.99,NaScO2
mp-754668,3.2482,Hf3N2O3
mp-34139,0.5626,Mn2CrO4
mp-626093,3.4939,H7NO6
mp-669496,0.6924,PtI4
mp-640553,1.7859,BaNb2O6
mp-765481,0.4536,Li2AgF5
mp-7614,0.7551,Si(Ag4S3)2
mp-776332,4.7322,Na(BH)5
mp-505148,2.4192,ThPbI6
mp-707014,2.5304,P2H10S4N2O
mp-978840,3.436,SrLi2(SiN2)2
mp-28688,2.1654,SrHgO2
mp-644923,5.6934,SiO2
mp-22862,5.0033,NaCl
mp-21043,3.1584,RbPbF3
mp-17240,4.5969,RbNa3Li12(SiO4)4
mp-555253,1.5128,La5Ti2AgS5O7
mp-5693,0.9263,NaCrS2
mp-757878,1.4867,Na5Cu(HO2)2
mp-770860,2.1268,Li4Mn2Fe3P6WO24
mp-978278,5.6382,Na(BH)6
mp-35986,6.3478,Ba4Nd3F17
mp-541682,0.4517,K3AlAs2
mp-569918,1.5516,K13Na2W7N19
mp-745012,3.5898,Ni2P2O7
mp-768061,0.966,NaMnPCO7
mp-775843,1.6504,Zr2N2O
mp-24148,1.9505,LiLa2HO3
mp-558310,4.3898,BaLi2SiO4
mp-5900,5.9376,Ba2ZrF8
mp-560789,1.8658,SbI(ClF3)2
mp-1222,0.3863,CrSi2
mp-29927,4.0573,Pb7(BrF6)2
mp-626037,5.4249,Si2H2O5
mp-935811,1.4238,KNbO3
mp-722862,3.2464,CdH3NO5
mp-572543,5.4729,CsPr(PO3)4
mp-690552,1.1296,SrLaMnMoO6
mp-768518,4.4363,LaAlO3
mp-759849,2.8232,Li2Ti6Zn3O16
mp-559469,3.6961,CaH6C2O7
mp-704488,2.7909,Th(MoO4)2
mp-758662,5.0335,Ba2GaP4HO14
mp-771321,2.5335,Cs4GeO4
mp-777447,3.4871,LiFe2F7
mp-556615,3.524,CaBi6(PO5)4
mp-767538,1.2257,NaCePCO7
mp-28431,0.5627,Sb(IF3)2
mp-4044,1.2833,ErAgSe2
mp-7940,0.6952,KNbSe2
mp-11684,5.5353,SiO2
mp-730585,7.1301,LiBH2OF4
mp-866834,1.9708,Ca2SnS4
mp-752529,0.9194,Li5CrS4
mp-561947,0.7564,CsHgF3
mp-23549,3.2839,Bi3B5O12
mp-714929,0.3418,CrO2
mp-25871,0.2558,Li3Cu2P5O16
mp-961703,0.8644,NaLiPt
mp-29760,3.1486,Ca10P6O25
mp-5020,2.5559,BaTiO3
mp-17375,1.3295,K2Na3TlO4
mp-778861,1.1214,LiV2OF5
mp-34381,3.7607,H4IN
mp-3952,3.2492,BaY2O4
mp-28662,0.4362,Tl2SnTe3
mp-771669,0.5113,Li5Mn5O12
mp-5029,0.3307,Ho2Cu2O5
mp-699453,3.8425,RbAs2H5O8
mp-774417,2.7074,Sn3P6WO24
mp-754353,0.9726,Zr3N4
mp-753720,2.4517,Li3BiS3
mp-774247,2.6907,Na3FeBSO7
mp-778859,2.6271,Li3Mn2Fe(BO3)3
mp-27148,0.8435,BeP2
mp-555580,4.3718,SrZr4(PO4)6
mp-6989,3.9034,BaSeO3
mp-849513,2.229,Fe2Sb(PO4)3
mp-570757,0.9826,Nb2Tl3CuSe12
mp-763331,3.0784,LiMn2F5
mp-24142,5.8393,MgAlH4O2F5
mp-6019,3.2035,Sr2YNbO6
mp-971707,2.2276,Tm2Mg2O5
mp-29682,0.4566,BaAg8S5
mp-949028,0.7334,Sn
mp-772875,3.4322,Ba2SrI6
mp-696125,5.2544,Li10Si(PO6)2
mp-754815,3.9934,YBr3
mp-556775,2.0399,ZnS
mp-1018737,1.6589,KMgP
mp-772572,1.138,Rb6Co2O7
mp-1007694,2.6443,SnPO4F
mp-13903,3.7147,ZnSnF6
mp-766168,1.7655,Ti4SnO10
mp-989570,3.6423,Cs2CaSnCl6
mp-772781,5.7659,Lu2B4O9
mp-7907,2.1416,Al2ZnSe4
mp-766983,2.0229,LiCa2Nb3O10
mp-18882,2.7465,VSiP2O9
mp-694885,2.3807,CaLaMnNbO6
mp-569421,1.3411,Hg9P5I6
mp-777235,0.4882,V5CuO12
mp-769609,1.5583,Li4VCr3O8
mp-707027,5.0958,CaScSi3HO9
mp-774995,0.9347,Fe5(OF4)2
mp-782065,3.5399,LiTePO5
mp-626716,3.6187,KHO
mp-744811,4.9625,NiH24C2S2(N3O7)2
mp-570971,1.3625,Sr3Ga3N5
mp-32884,1.3054,Ag2S
mp-676400,1.6998,TlNO2
mp-687204,3.3317,NdReMoO8
mp-561551,5.176,Y2Si2O7
mp-767065,0.5045,LiMn3F10
mp-22583,2.0423,KInP2S7
mp-28072,3.9215,La2Be2O5
mp-759280,4.4162,LiZr2(PO4)3
mp-557115,3.9319,Cs2As2OF10
mp-18835,1.7786,VPO4
mp-559916,2.444,Na17Al5O16
mp-555559,1.6363,Sm3NbSe3O4
mp-779571,3.8196,La3B5O12
mp-559516,2.9435,K3Nb(SO4)4
mp-10251,3.9643,LiDyO2
mp-8301,0.7324,Gd2CF2
mp-6507,3.3241,Na2Zn2Si2O7
mp-530933,3.4494,Li5P2N5
mp-31232,2.1177,In2PO5
mp-23559,3.059,In(IO3)3
mp-9047,2.299,RbBS3
mp-504748,3.3932,P3Pb5ClO12
mp-764345,2.1429,CrPO4
mp-771360,2.5692,Li6MnSn3(PO4)6
mp-768369,6.2374,Ba2YF7
mp-779358,4.0157,Na3VO4
mp-744929,2.6466,Li2Cr2H4O9
mp-568436,1.127,Sr7GeN6
mp-541462,3.5305,SrTa4O11
mp-542081,2.2563,K2LaP2S7
mp-764557,2.2666,V6O5F19
mp-555393,2.3298,KBi6BrO9
mp-570061,3.373,Nd3NCl6
mp-28293,2.4075,SnPCl9
mp-8248,3.6011,Rb2TeO3
mp-31116,3.8831,LaScO3
mp-764786,2.7767,Li4Mn(OF)2
mp-556953,1.8334,RbPS3
mp-706271,3.0416,K2NaMo(OF)3
mp-675420,1.4947,Pr4Ag2Se7
mp-770430,2.4874,GdTa3O9
mp-778347,3.103,LiFeF4
mp-558134,3.0045,TlF
mp-696490,5.0827,Ca2H2S2O7
mp-18531,1.438,K2Cd3Te4
mp-773602,0.7133,MnCo3O8
mp-574529,1.3831,Al(SeCl2)2
mp-626279,3.891,Ca(H8O5)2
mp-722189,2.4169,H8PtN2(ClO)2
mp-17288,3.7837,Li2ZnSiO4
mp-31419,3.0573,LaSb5O12
mp-16236,0.4838,KAgSe
mp-467,1.482,Th3N4
mp-13630,6.6192,Rb3NaBe2F8
mp-2951,1.4856,CdGeO3
mp-30321,5.6411,Y2P4O13
mp-581864,1.5081,CsAsSe2
mp-641919,3.5221,KLi3Ca7Ti2Si12(O18F)2
mp-761916,0.975,NaH4Au(Br2O)2
mp-561033,0.3253,CsCu5S3
mp-777883,4.6931,Ba6YCl15
mp-774365,3.3283,LiMn2F5
mp-568203,1.7402,K2Th(PSe3)3
mp-753858,3.8984,TiOF2
mp-19128,0.712,CoO
mp-771040,3.5501,Mg(IO3)2
mp-554175,5.762,SiO2
mp-7800,3.7139,LiSmO2
mp-776627,3.9836,Li3FeF6
mp-979340,2.934,Sr2LiTaN3F
mp-555983,4.7541,Er2SiO5
mp-778795,2.9462,Ta2Zn4O9
mp-705362,0.8797,Li2Co(PO3)5
mp-23218,2.2308,AsI3
mp-867355,0.6529,TeBr2
mp-504265,0.3613,CuPO4
mp-768110,2.4439,Li2Ti3CoO8
mp-757514,0.3352,Li4Cu2Si3O10
mp-7944,0.4159,NaSb
mp-29878,0.8085,Re2PCl13
mp-755530,1.665,Na3CuO2
mp-768315,3.3252,Mg(IO3)2
mp-780113,3.9964,LiMnP2HO7
mp-569984,1.1427,Cs3Au2Br11
mp-27480,2.6603,Sn2OF2
mp-9055,1.063,LiAlPdF6
mp-770692,2.4445,Ga2WO6
mp-573150,3.0623,Cs2GeO3
mp-601401,3.8732,KCSN
mp-5156,5.3899,ThP2O7
mp-12637,2.8574,Ba2NdNbO6
mp-1001021,0.2395,Y2ZnSe4
mp-989519,2.12,Cs2RbNF6
mp-768983,4.6338,Ba2YCl7
mp-772848,3.8577,K3ZnPCO7
mp-24422,4.1139,CaHBr
mp-27349,4.9997,BSF7
mp-697170,4.1225,MgH6(BrN)2
mp-9710,3.2012,Sr2Si5N8
mp-556910,2.5586,Sm3SiS6Cl
mp-28483,1.0698,WBr6
mp-849493,3.702,Li2FeF4
mp-705361,1.9382,LiCrP2O7
mp-769573,1.4801,LiTiVO4
mp-555845,5.7451,BaLiZr2F11
mp-698475,4.8673,K4ErP6H6ClO21
mp-16737,4.7137,Na2BeB2O5
mp-779539,1.2147,Li2CuPO4
mp-549695,0.8529,GdBi2ClO4
mp-29644,0.5969,GeBi4Te7
mp-28558,1.9935,RbGeBr3
mp-861504,4.6593,PrBO3
mp-554364,5.5284,MgBeAl4O8
mp-505141,1.4651,Cs2SnS14
mp-18591,3.9539,KZnPO4
mp-28829,3.777,Li2ZnBr4
mp-971661,1.3398,Si
mp-752682,3.4191,Ba2Sr7I18
mp-558751,2.5446,Ca(BiO2)2
mp-558674,4.0922,K2NaFeF6
mp-755289,4.1806,Li3Y3ZrO8
mp-614603,3.8572,CsI
mp-20402,1.9313,Lu6UO12
mp-3575,4.8226,Ca3(BO3)2
mp-773184,0.8064,Li2MnSnO4
mp-558289,1.5047,UAg2(SeO4)2
mp-8000,3.6159,SrSn(BO3)2
mp-29746,1.3806,Cd4P2Cl3
mp-626504,4.7476,Al(HO)3
mp-667315,0.9298,ScNb6Cl13O3
mp-557829,3.0384,Lu2Te5O13
mp-1439,2.5301,TiO2
mp-721958,5.1958,K4P4(H2O5)3
mp-13792,3.6681,KTaP4O13
mp-560555,0.8583,Li8Bi2PdO10
mp-36216,1.0979,Ag2S
mp-756118,4.4562,TbSmO3
mp-19272,0.2496,TbCrO4
mp-775695,0.4661,Li4Mn3V2Sb3O16
mp-778103,3.391,Cd(BO2)2
mp-560977,1.222,KTiPS5
mp-689684,1.1181,P2O5
mp-755574,5.743,LuAlO3
mp-821,0.4322,NbO2
mp-29699,0.5209,TiNb3O6
mp-781010,2.0584,Fe7(OF3)3
mp-28157,7.0948,P(HO)3
mp-767321,0.3313,Li7(SbS)2
mp-780561,2.869,La3Ga5O12
mp-23939,4.1525,H2O2
mp-23040,1.7152,Ca2PI
mp-1019576,1.4498,Ca4SiN4
mp-18822,2.8032,Mn2PO4F
mp-567878,4.1001,AlTlBr4
mp-15704,3.5623,BeSiN2
mp-776911,3.4257,MgO
mp-24421,5.1688,BaH2Cl2O7
mp-583084,2.2822,Rb3Er3(PS4)4
mp-20185,0.2161,LuNiSb
mp-561480,4.6108,NaNiF3
mp-23852,4.6115,Na3H5(CO4)2
mp-644222,2.4635,CdHClO
mp-568560,2.3494,TlBr
mp-625941,1.9116,Te(HO)6
mp-6257,3.303,CsNb(BO3)2
mp-768674,1.5144,Cs4Zr3Se14
mp-6467,0.493,Na2CuP2O7
mp-697268,2.8033,AgH2SNO3
mp-5598,2.927,Sm2SO2
mp-984052,1.7477,Ba(LuS2)2
mp-557577,3.6385,K3ScSi2O7
mp-759925,1.4529,Zn2Hg2H2Se2O11
mp-753260,2.8324,LaAgO2
mp-8873,4.523,LiGeBO4
mp-761683,3.2426,Na4TiO4
mp-560860,1.4386,Na2PtO3
mp-15221,1.9682,Rb2NbCuS4
mp-643829,5.5699,AlSiHO4
mp-22982,0.4641,CuBiS2
mp-28589,2.8833,Rb3Ge2Br7
mp-755684,3.5008,SrCa2I6
mp-768311,3.0788,Cs3NO4
mp-30456,0.5753,SrLiBi
mp-561095,4.1635,LiHo3Ge2(O4F)2
mp-18852,4.3941,Na2MoO4
mp-770545,0.653,LiAlCrO4
mp-636368,0.2351,Ga3Fe
mp-23024,5.0003,SrBrF
mp-652366,2.4043,MoPb5O8
mp-616190,0.9844,Tl2(ReSe2)3
mp-998711,3.3842,TlGeF3
mp-778152,1.8069,Sc2Pt2O7
mp-754162,3.0626,LiGdO2
mp-777672,3.0807,LiFeF3
mp-27657,5.639,Ca2B6O11
mp-31033,5.3947,HfF4
mp-8708,1.9355,Mg(AuF4)2
mp-755213,4.1309,YbCO3
mp-776691,2.7168,Li3VF5
mp-759287,0.2142,LiCu2PO4
mp-38771,1.3721,Gd2MgS4
mp-775705,1.3985,Li4Ti2Fe3Sn3O16
mp-768786,2.6536,BaYI5
mp-683991,0.3189,Cu4Bi4S9
mp-558128,3.6165,KNd2NbO6
mp-684021,0.6014,Sn4Sb6S13
mp-627606,1.5007,V3(H3O5)2
mp-757077,0.2113,Li2Cu2Si8O19
mp-18889,0.9691,VAg3O4
mp-31064,5.6619,B6H10N
mp-18256,5.1537,Mg2B2O5
mp-23569,1.5625,AsSe6IF6
mp-600084,5.549,SiO2
mp-754334,4.1184,NaTmO2
mp-9535,2.5678,Al6Cd4TeO12
mp-758996,4.9854,Zn5P6H22(NO11)2
mp-7738,1.7263,LaSeF
mp-555825,4.6001,Na4Sc2Si4O13
mp-8932,1.2768,Cs2SiP2
mp-21554,3.7225,P3Pb5O12F
mp-1153,3.4112,Li2S
mp-743,4.1736,RbN3
mp-650929,2.1933,Na2Ti9O19
mp-570411,1.646,K12In2Se9
mp-6488,3.0609,KTiAsO5
mp-32024,0.9589,Li3Mn2(PO4)3
mp-555508,3.5249,Ca11Si4SO18
mp-778622,1.9238,Li3Fe2(SiO4)2
mp-29698,2.0193,Nb3ClO7
mp-558219,2.9085,SrLi(BS2)3
mp-672262,2.9486,La3Zn3Ge2SbO14
mp-31508,3.0674,KPb2Br5
mp-680008,0,P6N6Cl10O
mp-721287,3.2541,Na3AsH14SO10
mp-767265,1.8282,V(Bi5O8)5
mp-19461,4.7864,Na5Nd(WO4)4
mp-6194,2.0893,K4UC3O11
mp-778485,2.6626,Ba2Ga6O11
mp-542642,1.4454,KSbSe2