id,formation_energy_per_atom,pretty_formula
mp-10368,-0.456251996,CoPSe
mp-19922,-0.813448195,LuNiGe
mp-2885,-1.174478036,Ga(MoS2)4
mp-978094,0.021512269,NdHo3
mp-767063,-2.39161838,Sn(PO3)2
mp-7522,-1.688732789,Th2SbN2
mp-735545,-1.702537012,Rb2FeH2Cl5O
mp-17566,-1.009398542,Ba5P4
mp-11274,-0.58479333,BePd
mp-31288,-0.764362403,La5Pb3I
mp-19388,-1.88150754,BaNi2(AsO4)2
mp-989191,-2.031127213,SbOF
mp-770645,-2.465355785,Li8HfO6
mp-559182,-2.361644964,P2IrClF6
mp-675651,-1.157283432,MgPS3
mp-625957,-2.409955484,Ta2H4O7
mp-20679,0.018250307,Co3SnC
mp-771944,-2.864263206,Ba3La2Cl12
mp-764702,-2.364573277,LiFe2(BO3)2
mp-680493,-0.291110188,K3Co(CN)6
mp-22724,-4.187639786,CeZrF7
mp-754964,-3.891934788,HfZrO4
mp-22467,-1.801077045,Sn(PbO2)2
mp-4374,-1.354234618,UAsS
mp-676512,-3.394272716,Na3AlF6
mp-17208,-2.585901758,K2Li14Zr3O14
mp-545525,-2.409364559,NbCuO3F
mp-5514,-0.670182292,TbCuSi
mp-768314,-2.267993695,BiB2O5
mp-645326,-0.47560516,Al3Bi5I12
mp-22955,-1.393489622,LiIO3
mp-989637,-0.711936504,BaReN3
mp-571222,-1.789854908,CsBr
mp-766437,-3.427353468,MgTi5O10
mp-5135,-0.563587895,Dy(CoB)2
mp-30452,-0.671014235,DyNiBi
mp-28698,-1.578436194,Na4IrO4
mp-761614,-1.99645629,CoCu(PO4)2
mp-20214,-0.225273891,UGa3
mp-7567,-2.885867378,UGeO4
mp-972364,0.00253021,Yb
mp-755915,-2.607214471,Li4Nb3TeO12
mp-697769,-2.48684506,Mo(PO3)4
mp-3951,-1.533272365,Ti2CuS4
mp-1786,-0.35093602,Ti3Au
mp-779083,-2.351252254,Li2V3SnO8
mp-1016846,-2.502840178,TiCdO3
mp-768216,-2.300074867,Li2BiPCO7
mp-759242,-1.088135003,InH10N2Cl5O
mp-3271,-0.590744526,Ti3AlC
mp-770322,-2.239259227,Rb2PrO3
mp-761486,-2.531813977,LiFePO4
mp-3336,-3.11381108,LaGaO3
mp-16721,-0.405907803,TmAl
mp-19741,-0.227087087,CeNiC2
mp-30534,-0.642157816,UCuP2
mp-540735,-1.624816131,Cs2UBr6
mp-546684,-1.03844291,PdSeO3
mp-756007,-2.080802266,Li3Cu3(PO4)2
mp-36029,-1.635571719,ErAgS2
mp-1008881,-0.239557723,MgNiH
mp-772640,-2.170563525,Ga2WO6
mp-752933,-1.70659355,Cu6OF11
mp-775199,-2.376353213,LiMnVO4
mp-973612,-0.174791526,Hf9CoMo4
mp-690548,-2.275773726,NaMgFe(SO4)3
mp-16652,-0.779960725,Tb2MgPd2
mp-972272,-0.71931203,TmAlAu2
mp-989537,-2.809630535,Cs2TlInF6
mp-780432,-3.636100438,La3Al5O12
mp-643004,-0.471656417,SrMg2FeH8
mp-630403,-2.735871666,Ca2MnGaO5
mp-570552,-0.592043854,CdI2
mp-977380,-0.472665592,LiMg2Pd
mp-770401,-2.320184067,SbPO4
mp-639910,-0.326569283,Y(Sn3Ru2)2
mp-28204,-1.477932158,CsH7O4
mp-636773,-0.665382166,Ce3(AlI)2
mp-17922,-3.235483114,Ca2P2O7
mp-555721,-1.237174285,Sr4GaN3O
mp-569981,-0.427731935,DyAl3
mp-1074,-0.02333973,RbSi
mp-849479,-2.221011792,Mn6O7F5
mp-763425,-2.867022067,LiMn2F7
mp-11017,-1.142847925,KCd(NO2)3
mp-20766,-0.576729073,CeCuGe
mp-12455,-1.706466997,TmCuS2
mp-542888,-1.895273755,La3AgSnS7
mp-1013548,-1.173736827,Ca3SbN
mp-531572,-2.78307845,Sr25Cl52
mp-763349,-3.02665835,Li2MnF4
mp-10386,-1.548046459,Sm3CrSe6
mp-35612,-3.629700884,PuOF
mp-762142,-1.77837725,Li2Fe3CoO8
mp-542388,-0.300333854,Lu7Te
mp-699213,-2.399021495,CsZn2P2HO8
mp-8946,-0.798068666,TlBS2
mp-865037,-0.181752076,CeMgAg2
mp-6452,-3.204586908,BaSm2ZnO5
mp-568478,-1.592638511,Nb6Tl2VCl18
mp-1019584,-3.448456157,CaAl2SiO6
mp-321,-0.082446378,RhPb2
mp-30710,-0.254332626,Pr2Zn17
mp-776437,-3.221262873,LaTa2NO5
mp-973878,-0.653083824,Lu3Ga5Ni
mp-570266,-0.242421263,Sm26Ga6Co11
mp-973599,0.281560268,Hg3As
mp-558533,-3.511167381,Nd3U(ClO2)3
mp-756637,-2.836377115,Ba3GeO5
mp-561102,-1.798080483,InBiO3
mp-768280,-3.295507957,Sm2B4O9
mp-505306,-2.688601585,Eu2Sn2O7
mp-560773,-2.210629708,K2NaS2ClO6
mp-11392,-0.79531813,TmGa2Pd
mp-9321,-2.304333181,Ba2HfS4
mp-4870,-2.299689825,Cu(BO2)2
mp-35596,-1.662791116,Fe2NiO4
mp-1019362,-0.898827988,ThBiTe
mp-1707,-0.509943202,BaN6
mp-12697,-0.122032152,Sc(MnSn)6
mp-772441,-2.891491131,Y2W2O9
mp-9776,-0.498774805,YbAgGe
mp-559962,-3.263481044,SiO2
mp-18977,-3.040516361,Ba2CaWO6
mp-28156,-2.508805623,NaGdCl4
mp-722937,-0.79659782,Zr3Zn3N
mp-978926,-2.479185825,SmGeO3
mp-755175,-3.374043284,Al2O3
mp-780529,-2.483540754,Li3Mn4(BO3)4
mp-775967,-2.555051004,Mn3NbCr2(PO4)6
mp-30876,-0.363564242,Zr3Sn
mp-29562,-1.359848603,Tl2MoCl6
mp-20998,-0.478491716,LiCaPb
mp-23421,-2.669425556,LiYb2Cl5
mp-567424,-0.466298915,K8NbAs5Pb
mp-753123,-2.574407845,Li2CuF4
mp-12960,-0.883423535,Er5Sb3
mp-771025,-2.496158566,Na2SiBSbO7
mp-15590,-3.320603363,Sr2Nb2O7
mp-9298,-1.491795397,Sr(AuO2)2
mp-567545,-0.264918273,K(In3Au2)2
mp-546190,-0.376732675,Ag2O3
mp-553966,-1.236180749,Li(CuO)2
mp-673678,-2.289577176,Ba2In2O5
mp-707441,-0.892992758,SnH12Pt(N2Cl3)2
mp-9230,-2.242686861,KAlAs2O7
mp-641661,-0.808522655,XeF6
mp-753287,-2.373342089,CaCdO2
mp-5541,-0.75645612,ZrVSi
mp-991652,-0.242293499,VCu3Te4
mp-849459,-2.356404836,Li2FeO2F
mp-861982,-0.377946612,PaGa3
mp-811,-0.483683008,BaPt5
mp-770546,-2.662979261,Li2Mn2P2O7F2
mp-541687,-1.077927861,K3GaSe3
mp-11288,-0.470941778,Ca3Hg2
mp-974049,-0.392854259,Hf3Pt
mp-758007,-2.611862385,Ba2CaP4(H3O8)2
mp-3040,-0.481032156,TbCo3B2
mp-707391,-1.436000598,Na3AsH24SeO15
mp-864630,-0.254148067,LiMg2Hg
mp-20673,-0.144000466,Mg(FeGe)6
mp-18645,-0.673974611,Sc5(In2Rh)2
mp-557741,-3.035370788,Ba17Tm16Zn8Pt4O57
mp-774246,-2.992058659,Nb9VO25
mp-8818,-0.85527171,Ca2ZnN2
mp-567698,-1.038214664,CsTiI3
mp-23434,-1.668809306,Al2CuCl8
mp-1020164,-2.65858945,Na3LiP2O7
mp-766256,-4.048478754,YTmO3
mp-766870,-1.864029939,Mn5O9F
mp-861881,-0.319585534,LiGeAu2
mp-18990,-2.972618736,Ba2Mn(BO2)6
mp-569451,-0.455965261,Sb2Pd5
mp-558702,-3.012039073,CsMnF3
mp-1009264,0.03054779,NbCo
mp-653559,-0.06549326,P4Se3I2
mp-667294,-0.981262131,Ca5(PPd)6
mp-554140,-1.191437302,TlV3(CrS4)2
mp-754341,-3.050876198,Ho2TeO6
mp-757715,-2.208748472,Tb(BiO2)3
mp-777559,-2.900138844,LiFeF4
mp-22888,-2.052631578,CaBr2
mp-643047,-0.652641281,Ba3(H6Ir)2
mp-2797,-0.185236803,YCu5
mp-504644,-3.924899617,KCeF4
mp-4602,-3.78988661,Tb2Ti2O7
mp-21949,-1.491593146,K4PbO3
mp-7753,-0.482942758,MgPd3
mp-973874,-0.190336036,LiLa2Al
mp-600052,-3.277466225,SiO2
mp-631381,0.92756879,TeRuSe
mp-364,-1.09545718,AlRh
mp-863880,-1.992152846,Li6VFe5O12
mp-773111,-2.838051331,Ba2LaCl7
mp-542681,-0.127682443,Na3In2Ag
mp-5605,-0.396884985,Ce(SiAg)2
mp-865521,-1.310528829,LuI3
mp-5920,-0.294380662,LiAlGe
mp-18969,-1.680647959,FeCO3
mp-866143,-0.805237212,TiBeRh2
mp-18540,-1.538630108,CsEr2Cu3S5
mp-9605,-0.879225836,Hf3Si3Ni2
mp-764720,-2.374026569,LiFe2(BO3)2
mp-753691,-2.542263627,Y2Bi2O7
mp-772290,-1.268716299,LiAgO
mp-868000,-2.016144323,Ba5Y3Br19
mp-779074,-2.510764443,Li8Mn7Fe(BO3)8
mp-776658,-2.818464581,BaO
mp-4813,-0.427343868,NbAlNi2
mp-556108,-3.553412277,DyTiClO3
mp-19986,-0.723413874,DyGeRu
mp-780402,-3.69191104,Sc2Ti2O7
mp-26467,-2.202703006,LiCuPO4
mp-559210,-2.536551621,Ca5Te3O14
mp-973592,-2.304901835,Ho2Ge2O5
mp-572797,-2.499243764,Cs2IrF6
mp-556979,-1.659393761,CsSmGeS4
mp-28724,-0.757046537,Gd2CI
mp-699261,-0.580897035,CdH16C4S4(N4Cl)2
mp-8978,-0.924033973,CsNbN2
mp-11595,-0.590670654,Yb5Ge3
mp-9360,-3.24717553,CaU(PO4)2
mp-23358,-0.760903354,Hg5(ClO2)2
mp-12723,-0.810847032,CaAu
mp-25943,-2.426828949,Li2CuP2O7
mp-3967,-1.097957711,NaNO
mp-773501,-2.371564434,Li3MnV2O6
mp-650715,-3.271726638,Gd2Be2GeO7
mp-863736,-0.507633616,Ho2OsAu
mp-13042,-3.185525364,NaSr3TaO6
mp-1006367,-1.641406323,Ce2HfSe5
mp-764496,-1.357360145,Na14Ni2O9
mp-18168,-2.242911886,TlZnPO4
mp-1019892,-3.126291354,La2B8O15
mp-778072,-4.312499175,Ba2Y5F19
mp-675769,-0.713580028,Ce(Mo3Se4)2
mp-569687,-0.492679132,CuHgSeCl
mp-680247,-0.855107801,K3P6S6N7
mp-3551,-0.923502523,TbAgTe2
mp-777766,-2.744249836,Li3NbHO2F7
mp-572598,-1.166990899,Cs2Ge2S5
mp-694917,-1.767026294,Na4CaFe4(PO4)6
mp-1001914,-0.236223424,Li2SnIr
mp-567456,-0.488532735,CaGe2
mp-680254,-2.724334216,Yb7Cl15
mp-560412,-2.431190013,GdP4H4NO12
mp-758059,-1.909309445,Ba7Pb17O24
mp-730972,-1.613899678,UP3H10ClO8
mp-21105,-0.462692127,PuSi2
mp-560345,-0.934447692,Cs3CuTeS9
mp-684970,-0.008603428,Cu19Se11
mp-1359,-0.501530435,NbIr
mp-2413,-0.153955255,Ce3Al
mp-27478,-3.664465752,Na3PaF8
mp-34656,0.201400805,Cd(CN)2
mp-1500,-2.411739677,BaS
mp-11373,-0.66021901,DyTlPd
mp-12521,-0.451692902,SrNi3Ge2
mp-23398,-2.145782145,BClF6
mp-989554,-0.908272208,LaMnN3
mp-974589,0.124117352,Re3Mo
mp-24333,-1.520476763,UH12(ClO2)3
mp-771523,-2.248283058,LiCr2O4
mp-754191,-3.651315532,La2Ti3O9
mp-17113,-2.563462829,Sm2Ru2O7
mp-29783,-0.146763117,B5H9
mp-972733,0.909673771,Si3B
mp-568954,-1.313216372,Nd3CuGeSe7
mp-1639,-1.395930085,BN
mp-306,-2.815783013,B2O3
mp-5069,-0.544243518,La(MnSi)2
mp-604120,-1.508197927,PH6NO4
mp-775931,-1.144811031,Li2FeS2
mp-28952,-1.535070852,PdSO4
mp-777427,-2.277315853,Li4Mn2V3Sn3O16
mp-30274,-3.229974628,AcBrO
mp-558186,-4.339946896,RbLu3F10
mp-19973,-0.619613286,LaCoGe3
mp-10692,-0.210324069,CoGe
mp-978284,-2.522783652,Na2P3HO9
mp-641923,-1.260869146,Cs2SnBr6
mp-5052,-2.661233001,TiCdO3
mp-1714,-0.443998043,FeSi2
mp-756376,-2.777856969,Li3Nb4ZnO12
mp-1006057,-0.496296562,LaPrIn2
mp-763291,-2.612913882,V3O5F
mp-11478,0.045786882,GaAg
mp-772609,-2.872961411,La2Zn2O5
mp-755061,-1.620286649,SrCaI4
mp-974865,0.019224046,NdY3
mp-1020141,-3.148073139,Na2Al2Si3O10
mp-568006,-0.049887987,DyFe5
mp-22060,0.041402464,Nb3In
mp-774832,-2.385751421,Ba10Li2Bi4O21
mp-782650,-2.556863475,LiMnP2O7
mp-687227,-1.761060959,MnSb2Pb5O11
mp-30253,-0.258526125,Na10SrSn12
mp-756188,-1.160234503,LiCu3O4
mp-91,0,W
mp-21922,-1.576751946,Te3(PbO4)2
mp-5082,-0.905060944,Nd2Si3Rh
mp-5072,-1.30150414,Rb2HgO2
mp-2541,-0.381944684,SmTl
mp-37108,-2.464788542,Sr(NdS2)2
mp-755231,-1.769877535,LiTeO3
mp-21153,-0.925400147,ErGeIr
mp-975797,0.010240249,PrSm3
mp-768305,-3.605760699,Sr2HfO4
mp-569698,-0.701718334,UAl2Pd5
mp-8957,-2.337162348,Na5TaO5
mp-625415,-2.321094115,Tb(HO)3
mp-977568,-0.732324641,ZrSnPd2
mp-864786,-1.015221358,Yb2PdPt
mp-8762,-3.048853323,Er2S2O
mp-2642,-0.048580401,CdAg
mp-999059,-0.237409261,Ti2GaFe
mp-12465,-0.295183247,Co(TePd)2
mp-775994,-2.725095059,Ti3CrCu2(PO4)6
mp-4291,-0.684180113,Ho(NiGe)2
mp-580480,-0.110500579,Mn8Zn14Ga27
mp-569408,-0.406441156,K(CoAs)2
mp-1008277,0.022917884,CrCo2As
mp-6548,-3.455367608,K2La2Ti3O10
mp-8468,-0.782395846,Sr(SbPd)2
mp-865090,-0.271134373,NaAcTl2
mp-758868,-2.137478939,MgBP(H3O4)2
mp-510376,-0.769090861,CeBRh3
mp-13363,-0.518316491,SiPt3
mp-569220,-0.378359018,ErRu2
mp-977057,-0.333207793,NpAs3
mp-770456,-2.815131091,Li6Ti2O7
mp-624190,-0.833469843,GePbS3
mp-541459,-2.52652475,KSnPO5
mp-779959,-1.454607242,Li3Co2(NiO4)2
mp-972036,-0.258836561,WN
mp-572778,-1.282453886,Cu3BiTe2ClO8
mp-558924,-3.02833884,Na5Ga3F14
mp-753277,-2.164133524,LiAgF2
mp-560425,-2.778751089,Sr2Cu(BO3)2
mp-8597,-0.575035227,ScB2C
mp-2490,-0.409411711,GaP
mp-631511,1.141610403,BiBTe
mp-15079,-3.103305243,Cs4KLiGa2F12
mp-753098,-2.268483991,LiCuF2
mp-31462,-0.932794372,Er5BiPt2
mp-30758,-0.252547252,Li2MgPb
mp-989569,-2.773270567,Rb2NaPbF6
mp-41191,-3.011596807,Na3Ti2P2O10F
mp-705547,-1.719534838,Fe2O3
mp-600124,-0.206455273,MnNiSb
mp-634381,-2.155761706,V2Zn2O7
mp-756348,-1.130256803,Li2FeS2
mp-619064,-2.695886462,PrMnGeO5
mp-626552,-1.47599864,Ca(H8O5)2
mp-32581,-1.461945144,Pr2Te3
mp-766393,-3.245920466,Li7Ti11O24
mp-979234,0.022327446,Sm3Y
mp-882,-0.908312108,Ti6O
mp-735529,-1.611316217,FePH6NO5
mp-976322,-0.419575108,Li3Pt
mp-30877,-0.338429205,SrTl2
mp-1018276,-0.459976125,CeGa
mp-571065,-1.22640608,TiBr3
mp-780876,-2.500544173,Li6Fe(OF)3
mp-15986,-0.616951649,Hf(CuP)2
mp-753662,-2.292397934,K2Mg2O3
mp-556099,-2.955550776,Yb3B5O12
mp-22873,-0.918645359,SmBi
mp-35082,-0.442132951,BH6N
mp-1008554,-0.146285603,Al3V
mp-7332,-0.536614916,NdP5
mp-17709,-2.499029366,Na2ZnSiO4
mp-691065,-3.355216866,K6Ba2CaU6O24
mp-8635,0.04132536,Zr
mp-18610,-3.352976813,Sm2SiSeO4
mp-1976,-0.362840913,CaGa4
mp-973266,-0.195049672,Lu3Al
mp-669498,-1.146451871,K2Pt(NO2)4
mp-974270,0.192569217,Na3Al
mp-13230,-3.6110248,K3YF6
mp-849520,-2.254375314,LiCo3(SiO4)2
mp-984765,-0.543408635,Ba3Te
mp-640899,-0.154077255,Ce2Zn2Cu5
mp-20811,-0.398442733,UCoSi
mp-1009471,-0.613196666,NbN
mp-10348,-3.492191977,LaSc3(BO3)4
mp-30150,-0.072321272,GaBH6
mp-756469,-4.011451474,DyLuO3
mp-3839,-0.282833394,GaCuTe2
mp-21348,-3.351791128,Ba2EuTaO6
mp-775774,-1.045404169,AgBiO3
mp-20234,-0.577321341,Li2BPt3
mp-850999,-1.668183993,NaCr4O12
mp-569819,-0.339462092,Th7Os3
mp-974842,-0.965316959,KPtO3
mp-669528,-3.015569946,Na2UO4
mp-3869,-0.797161515,TbBRh3
mp-21182,-1.260411571,Sc3P2
mp-1013643,-0.917455965,Sr3BiP
mp-760122,-2.506234678,Li2CuF4
mp-985592,-1.383270986,Li6PS5Cl
mp-759933,-2.483541477,Li2Sn(BO3)2
mp-753418,-3.569159194,SrNd2O4
mp-16287,-0.396243369,NdRh3C
mp-560993,-3.384164154,CaAl12Si4O27
mp-684679,-1.803849078,Sb6O13
mp-1007637,-0.203886565,KNaH2
mp-561246,-2.895670681,Al2Si2Pb2O9
mp-1111,-0.348580694,Mn5Si3
mp-780891,-1.636187814,Fe4O7F
mp-973882,-0.990374925,Lu2PdRh
mp-571547,-0.079092754,Te2Au
mp-3414,-2.381986195,AgSbF6
mp-34361,-0.305570023,Tl9BiTe6
mp-978991,0.016772835,TmMg5
mp-691121,-2.851253175,Sr3La5Mn8O24
mp-662702,-0.797926613,NaIO4
mp-983590,-0.210906305,Be3Fe
mp-980426,-0.330658416,TmAlAg2
mp-1019778,-2.761759052,K2Li3B(P2O7)2
mp-20665,-0.279839457,CeInCu
mp-21154,-0.488426367,TbMnGe
mp-764900,-2.848532003,VOF
mp-567093,-0.60803029,Yb(SiOs)2
mp-573321,-0.245405919,TePdI2
mp-22596,-0.514288494,Ni3(PbS)2
mp-979412,0.541430211,Th3B
mp-770591,-2.473864173,Li3MnAlO4
mp-1018120,-0.184232947,TmSb2
mp-738624,-2.112087158,SmP2H9O11
mp-570026,-0.644328127,ErAgGe
mp-300,-0.783987045,YbPt3
mp-13486,-0.067450489,LaCoCu12
mp-5083,-0.473520497,Er(CuGe)2
mp-977454,-0.161318315,HgPd2Au
mp-5840,-3.361733288,LiScO2
mp-973191,-0.061017095,LiTl3
mp-984718,-0.014099576,BAs
mp-11749,-0.890091514,Tm5(SiSb)2
mp-18869,-1.877327195,Na4Mn2O5
mp-1018671,-0.44968104,CeZnGa
mp-775763,-2.493352564,AlBiO3
mp-21137,-2.572500091,Ca2PbO4
mp-561400,-3.401860739,NaZr2AgF11
mp-10487,-0.401653034,RbSb
mp-21007,-1.072768056,SmSnPt
mp-765894,-3.165377798,Li5VF8
mp-36248,-0.701393374,H4BrN
mp-997015,-0.967127239,PbAuO2
mp-864651,-0.261903525,Ta2NbRu
mp-673875,-0.743529536,Fe2RhS4
mp-1558,-0.647069635,SrPd2
mp-866660,-0.563120646,K3P2AuSe8
mp-562667,-0.470561004,Ag3N5O6
mp-10504,-0.456577715,ScB4Os3
mp-29549,-0.126027349,Si(PH2)4
mp-556702,-3.980081431,Ba6Eu(ClF6)2
mp-780409,-3.813467305,La4Al2O9
mp-554681,-1.139925304,ZnS
mp-755480,-1.096036429,KRbO
mp-771828,-3.847112689,Dy2Zr2O7
mp-552663,-2.395431679,LiScAs2O7
mp-680754,-0.436230804,Ca5CuPb3
mp-1019317,-0.442493101,TcB2
mp-567818,-0.795656318,Sm(NiAs)2
mp-978845,0.038450829,Sm3Sc
mp-675770,-3.867520841,Nd3U2O10
mp-1018757,-0.537314449,LaZnGa
mp-37879,-1.685668297,LiYSe2
mp-684605,-0.020223804,Cu17Se10
mp-759185,-2.516094658,LiSb(PO3)4
mp-5189,-2.460748897,AlAsO4
mp-9972,-0.850748532,YSi
mp-974869,1.215338547,Rb3Nb
mp-38950,-3.900363168,Ce2Y2O7
mp-573810,-0.585365985,U2Te5
mp-540022,-2.439907708,MnPO4
mp-752501,-2.522029421,LiSiBiO4
mp-866661,-1.283091933,K3Dy(AsS4)2
mp-31229,-0.491021379,Na4(BSe)9
mp-1018018,0.865731886,PdN
mp-763020,-2.577969934,Fe4OF7
mp-1019552,-1.380177244,Ca16(SiN2)17
mp-21141,-0.080665091,Fe2CuGe2
mp-768262,-3.051952808,V3F10
mp-20725,-1.302175576,PbO2
mp-27445,-1.743438333,As(IF2)3
mp-22759,-0.430715154,CoBW
mp-772797,-2.828020437,Ti2Cu(PO4)3
mp-974795,1.072008558,Rb3Ti
mp-7117,-1.091412936,LiAlSe2
mp-2210,-0.11045269,ZrCu
mp-1016827,-2.066125318,MgGeO3
mp-31328,-0.393948981,MnInPd2
mp-10164,-0.578442749,NaGaTe2
mp-560853,-1.780446218,Tb3Si2S8I
mp-557538,-3.412251967,Na2Gd2MgSi4(O6F)2
mp-757073,-2.276854011,Ba4LiY2Cu5O14
mp-10059,-0.555879099,ZrCo3B2
mp-560127,-2.904749784,K2MnF6
mp-19818,-0.539879,Dy3PbC
mp-561385,-2.396447909,SrTeO3
mp-753917,-3.982119733,Y2HfO5
mp-554749,-2.247946429,P3IrO9
mp-14694,-2.648730185,CaCuP2O7
mp-6305,-2.445155927,K3TiO4F3
mp-31098,-0.676051911,YB2Ir3
mp-695800,-2.189339995,KScAs2(HO4)2
mp-30535,-0.129572422,Li2BeH4
mp-29824,-1.136025774,La3RuI3
mp-978009,0.980283932,HgOs
mp-769347,-2.414133104,MgSO3
mp-30555,-0.343439302,TaGaCo2
mp-772835,-2.776273595,K2NdPCO7
mp-7824,-2.79001962,K2ReF6
mp-1830,-0.534432534,NpTe
mp-23257,-1.989500918,IF5
mp-995218,-0.523665962,H4C5O2
mp-21030,-0.295417734,Ti3Sn
mp-866635,-0.692512365,CuH3NCl
mp-2390,-0.738608046,YbP
mp-547125,-2.475471527,TbBi2ClO4
mp-17761,-2.770570201,CaGeO3
mp-768678,-1.999944086,LiSn2(SO4)3
mp-10509,-3.181963239,BaGaBO3F2
mp-985304,-0.985231774,Cr(GaS2)2
mp-758006,-3.438752457,Ca2SiO4
mp-779729,-3.01588181,Na2Ti2O5
mp-625803,-1.502468056,Sr(H8O5)2
mp-19007,-2.615191189,V2PO5
mp-972471,0.016418424,Sm3Ho
mp-557824,-1.138554297,Rb2(ReS2)3
mp-10293,0.085626011,BaC2
mp-672335,-0.218156002,YIn2Ni9
mp-775699,-2.261631824,Li6V3Sb3O16
mp-768326,-1.969479725,Na4Sn2C4SO16
mp-569343,-0.157928779,Tb4Mg3Co2
mp-569112,-0.801181514,Li3CaMnN3
mp-510709,-2.016760024,SrAsH3O5
mp-7365,-0.492578644,Sr(SiAu)2
mp-12798,-0.071788395,Ni3Pt
mp-29363,-0.382520152,Rb3GaP2
mp-560900,-2.256760568,RbSb2C2O4F5
mp-19336,-2.824617675,Nd2MnCoO6
mp-28541,-2.494096074,Bi2P4O13
mp-28591,-0.340972846,Na4HgP2
mp-979258,-0.386953054,Tm2CdHg
mp-7061,-1.973272968,NdZnAsO
mp-12644,-3.519310675,Ba2LuNbO6
mp-767192,-2.431814262,Sn(PO3)2
mp-975634,-0.820762225,Pr2Ge5Rh3
mp-756235,-1.770668394,Ba3SrI8
mp-30227,-1.763583876,Rb2WCl6
mp-1332,-0.389825763,Si3Mo5
mp-763345,-2.618843004,Li2VO2F
mp-754154,-2.995402706,CsHoO2
mp-27625,-0.165851306,Ge19(PBr)4
mp-999507,0.149264428,MnSn
mp-977593,-0.156348805,Tm2CuTc
mp-541338,-3.130165067,AlPO4
mp-778857,-2.456998644,Li5Mn8(BO3)8
mp-6118,-2.636757434,Ca3Cu3(PO4)4
mp-21601,-0.442226981,Tb(SiNi5)2
mp-771199,-2.294587658,V3FeO8
mp-18220,-3.229466615,LiAlSiO4
mp-7769,-2.287364182,Th2SN2
mp-24154,-0.317598929,NbH2
mp-557290,-2.856789588,Na2Si2O5
mp-618991,-0.316496825,Cu2S
mp-571554,-0.475761746,PrAlSi2
mp-22423,-2.108115901,BaLa2CoS5
mp-20878,-1.472430642,PbO
mp-1014138,-0.408435756,ZrB
mp-752424,-2.332803469,Ba4Br6O
mp-24044,-1.478031444,CaH12(BrO3)2
mp-766348,-1.662126611,BaCaI4
mp-769592,-2.38187931,Na3VPCO7
mp-1002165,1.326508828,GeC
mp-549475,-2.361578248,TbBi2BrO4
mp-3018,-0.569344631,Nd(MnSi)2
mp-759183,-0.623133333,K2Mg(H2N)4
mp-532789,-2.727961268,Li6Nd6Sb(TeO8)3
mp-979,-0.558856003,ZrSb2
mp-571021,-0.176135947,K5InPb8
mp-8958,-1.899340785,RbPd2F5
mp-865829,-0.688433095,Lu2CuIr
mp-863076,-2.473651185,NbBiO4
mp-759324,-1.695819805,Yb(Bi3O5)4
mp-776825,-4.328040622,BaY3F11
mp-24367,-1.522611402,Na2AsH15O11
mp-14285,-0.529422635,CoP2
mp-1018112,-0.212126123,YSb2
mp-758708,-2.342513582,Li2CuSiO4
mp-16475,-0.979284951,Sr11Sb10
mp-753973,-2.492652616,LiSnP2O7
mp-18164,-2.32650367,Tb3S3N
mp-621667,-0.261517545,Eu3Ag2
mp-1008223,-1.768901827,CaSe
mp-5594,-3.628824629,Sc2Si2O7
mp-6754,-0.519934382,TmNi2B2C
mp-999195,0.481676031,RuN
mp-961688,-0.129126437,VGaPt
mp-8753,-0.366880357,K4HgP2
mp-974408,0.129183879,Re3W
mp-4886,-2.626440281,NdCuO2
mp-23029,-0.911558834,Cs3Sb2I9
mp-1979,-0.905406291,HoPd3
mp-17583,-2.992700331,Gd2TeO6
mp-12052,-0.943541827,Er4Sb3
mp-556399,-1.56474869,LaTiI5O16
mp-1008835,0.595674436,OsC2
mp-849498,-2.489147398,Li5Mn6(BO3)6
mp-557236,-1.556019262,Te2As2Se8S(OF6)2
mp-1272,0.068551045,Cr3Ru
mp-29802,-0.404044684,Sc(NiGe)6
mp-505473,-0.280332555,Al(Ni10B7)2
mp-545788,-1.210554544,Ba3ZnN2O
mp-9576,-0.703074421,KSbSe2
mp-30381,-0.510564628,Li2GaAu
mp-554216,-1.117024234,K3Bi(PS4)2
mp-972600,-2.36910567,UCd(PbO3)2
mp-561449,-1.959452835,OsOF4
mp-29895,-0.927783287,Rb3Bi2I9
mp-7882,-0.404700307,Ba(AgSn)2
mp-769635,-2.442988214,Li2VCrO4
mp-779864,-2.542231791,Hf2N2O
mp-704546,-1.914140435,RbNaCr2O7
mp-643896,-2.010983764,Na2Hf(HO)6
mp-759897,-1.433898492,Cu2OF2
mp-865930,-0.164110683,TiZnCu2
mp-864610,-0.253235844,Nd2MgAl
mp-770715,-2.151879158,Ga2WO6
mp-642660,-0.345947429,Mg2CoH5
mp-761191,-2.166166025,LiCuPO4
mp-555679,-3.583264386,Na2UF6
mp-7462,-0.932306836,Hg2SeO4
mp-530449,-2.724212464,Ca3(AsO4)2
mp-35746,-2.440302578,Sr(YS2)2
mp-27981,-3.060079523,PuClO
mp-25305,-3.340405019,Y2Ti2S2O5
mp-676673,-1.057425099,NaClO2
mp-865954,-0.507449885,LiHo2Rh
mp-568148,-0.212147018,PrZn11
mp-397,-0.063958178,KCd13
mp-505508,-1.813318655,V2Cu2O7
mp-754165,-3.120541903,ScGaO3
mp-766134,-1.572938735,UH12(NO7)2
mp-975386,-2.302976507,RbDyO3
mp-770757,-1.90265294,Li2MnFe3O8
mp-662499,-2.259200734,RbMgCl3
mp-23252,-0.679122009,Ce4Bi3