id,band_gap,pretty_formula
mp-776732,2.9492,Li2Fe3F8
mp-680093,2.351,CdI2
mp-27383,0.7344,Nb3CuO8
mp-675779,1.3164,Li2Mo3S4
mp-683910,1.3806,Ag7P3S11
mp-771963,3.6471,Ba2LaCl7
mp-765277,3.3,LiSnPO4
mp-779307,2.5133,Li3Fe(BO3)2
mp-559043,2.3089,KLaGeS4
mp-8612,0.4838,Sb2TeSe2
mp-6941,2.8046,Y2Si3N4O3
mp-15011,2.5611,NaBS2
mp-560986,1.5689,AsSe2S(NF3)2
mp-769510,0.3364,Li5Ti4Co3O16
mp-568100,1.0852,ReNCl4
mp-3808,1.9745,K2UO4
mp-9692,1.7106,K2GeSe3
mp-707226,3.7476,H8Se2N2O5
mp-850913,1.6562,LiVOF3
mp-554591,4.7367,K2Ca2(CO3)3
mp-561062,3.8527,NaSb3(PO5)2
mp-23705,2.8136,Na3AlH6
mp-23894,3.9942,LiAs(HO2)2
mp-680944,1.6157,Nb2O5
mp-556892,2.736,InBiO3
mp-744930,4.329,FeH6SO6
mp-540270,1.2528,MoP2O7
mp-18347,1.894,KAlTe2
mp-558383,1.0968,Na2CrF4
mp-8058,3.6599,YAsO4
mp-5706,1.297,SnPSe3
mp-28517,1.6895,Tl6SeI4
mp-755015,3.6677,NaLaO2
mp-556905,3.0152,GdMg(BO2)5
mp-3442,2.2435,CaTiO3
mp-775761,2.9272,AgClO3
mp-754541,1.3734,TmTlO2
mp-763211,0.237,V3O5F
mp-734875,3.5479,H2Pb4C(Cl3O2)2
mp-3834,3.0368,BaZrO3
mp-27752,2.4269,Na6Ge2S7
mp-12266,0.7396,CaCuF4
mp-18049,3.5719,Ge5P6O25
mp-779365,1.5251,V2OF5
mp-27837,6.8151,NaHF2
mp-15793,1.5142,LiTbSe2
mp-771082,1.7176,Li4CrFe3O8
mp-32352,0.9367,LiNi(PO3)4
mp-776753,1.4202,Li4CrFe2Ni3(PO4)6
mp-560965,1.0475,K4Mn(AsS4)2
mp-649982,1.487,Sb8(Pb3S7)3
mp-756090,1.3924,BaNa4O3
mp-767752,0.6455,Li3V5O10
mp-23560,3.4996,Ge3(BiO3)4
mp-15248,1.9128,K3Nb3(BO6)2
mp-557104,5.4112,LiAlB2O5
mp-1019895,1.2114,La3BN2O3
mp-675832,0.9146,SrCeN2
mp-16209,0,K3La(PS4)2
mp-733858,4.151,CaH4Se2O7
mp-626708,2.3773,Co(HO)2
mp-769563,0.8337,Li4V3Cr3(TeO8)2
mp-14862,0.8595,SrCu(Si2O5)2
mp-770514,1.3692,Li5MnO4
mp-29128,2.9155,K2Te4O9
mp-24509,3.9705,CdH4(BrO4)2
mp-764991,0.4419,Li3V3P8O29
mp-18781,2.2954,CrCdO4
mp-11691,2.2057,Nd2HgO4
mp-695891,3.1871,CdH6C(BrN)3
mp-767610,1.4567,Mn2O3F
mp-27914,2.8361,Na3BiO3
mp-973261,1.9035,Mg2SnO4
mp-504207,4.1221,LiSb(PO3)4
mp-19380,1.3721,CrHgO4
mp-643248,4.5162,Na2AlH4ClO4
mp-740707,3.1406,H8AuC2S2BrN4
mp-759651,3.0567,ScH6Br3N2
mp-733655,5.5912,KH3(SO4)2
mp-15254,7.6904,Li3AlF6
mp-761745,2.8586,SrCd2H16(Br3O4)2
mp-862754,2.417,PrBS3
mp-557125,1.8141,K3ReClF6
mp-568644,1.8682,K9InSe7
mp-29286,3.8659,TlSbF4
mp-555903,3.3364,Al(IO3)3
mp-4495,2.4134,KLiTe
mp-779515,2.0267,Na4Bi2C4SO16
mp-11740,1.2648,KNdTe2
mp-4325,3.5636,Zr(SO4)2
mp-755060,0.2789,Cs2O
mp-767435,2.0766,P3(WO6)2
mp-28296,0.3419,Ba3GaSb3
mp-695048,1.3461,GdTi2CdO6F
mp-974307,1.4349,NdCuTeO
mp-768865,3.4204,Lu2GeO5
mp-777694,1.0835,Li4Ti3V5O16
mp-36765,1.1454,Ti(CoO2)2
mp-675406,2.1725,Yb(HoS2)2
mp-771698,4.4785,LaAlO3
mp-769396,2.9476,Y2Ge2O7
mp-865532,1.8538,BaMgTe2O7
mp-758251,0.3582,Li5AgF8
mp-766308,3.0007,BaCaI4
mp-721075,5.234,Ga2P3H11O13
mp-11023,1.7716,ScAuO2
mp-23576,3.6614,CsSbClF3
mp-7781,1.1877,CaZrS3
mp-758571,4.5853,Al11TlO17
mp-647343,1.2227,PBr7
mp-4421,3.4438,LaTaO4
mp-30077,1.1042,K2GaSb2
mp-696512,3.6891,NaH4IO2
mp-557517,1.8007,Tb3CuGeS7
mp-558056,5.4806,AlPO4
mp-7324,5.2347,KBePO4
mp-1014168,1.8178,CsPbBr3
mp-774726,2.5031,Cu2H26C6S7N12O5
mp-650015,3.8766,P6N7Cl9
mp-697264,3.7854,CdH2SeO4
mp-8098,1.342,InGaO3
mp-552729,2.5682,KIO3
mp-774479,2.189,LiCa2Ta3O10
mp-560790,5.0369,Cs2NaBiF6
mp-28812,1.4712,Ag5BiO4
mp-1019514,5.4472,AlPO4
mp-7405,4.7713,SmAlO3
mp-775849,1.6802,Zr2N2O
mp-30971,0.5969,CuTe2Cl
mp-36395,1.7848,La2CdS4
mp-28712,1.4933,Si2Hg6O7
mp-29591,2.6809,Sb3ClO4
mp-738657,2.9734,K3GdH6(C2O5)3
mp-770417,1.4005,Li4Mn2VNi3(PO4)6
mp-8537,5.8812,S(OF)2
mp-754212,3.9768,BaSr2I6
mp-18687,4.5673,NbF5
mp-567278,3.2153,Sr(Si3N4)2
mp-21609,0.2645,SrCuN
mp-4709,3.7547,PrNbO4
mp-28797,1.5169,YHSe
mp-569299,0.2265,Be(BC)2
mp-675821,3.6276,Y3TaO7
mp-754637,0.6747,NaCuP2O7
mp-685810,3.5131,AsN2F7
mp-985584,2.3337,Na3PS4
mp-768207,3.2282,Li2SbPCO7
mp-778032,1.1357,LiV2(SiO4)2
mp-32594,1.4546,Sm2Se3
mp-568191,1.1308,SrLuCuSe3
mp-559695,4.7856,Cs2RbBiF6
mp-980659,2.8618,Tl3BiCl6
mp-21706,2.982,GdAl3(PbO4)2
mp-17371,6.7983,K2ErF5
mp-766979,2.9112,Sn4P2O9
mp-23162,0.8614,ZrCl2
mp-567824,4.3391,K2NaCo(CN)6
mp-1018096,1.0924,Ba2NF
mp-7017,0.8512,NaNbN2
mp-15953,0.3951,P2Rh
mp-19443,1.1456,WO3
mp-762643,1.6632,LiFeSiO4
mp-9619,0.5338,Th(FeP3)4
mp-755225,4.7626,Li8ZrO6
mp-766250,5.4141,Er2H16S3O20
mp-2612,0.4145,GeTe
mp-542121,3.717,Rb4Nb2Si8O23
mp-561877,7.7482,HoF3
mp-569059,2.3223,HfI4
mp-3159,1.9965,Al2CdSe4
mp-696457,5.3068,ScP3(HO2)6
mp-18771,1.6419,Sr2CoWO6
mp-557126,4.7893,NaPr(Si3O7)2
mp-4515,0.9985,Ag3SbS3
mp-18568,2.5146,Na2Ge2S5
mp-14249,2.4373,Th(PS3)2
mp-29215,3.0667,Te4P2O13
mp-18956,0.2492,SmCrO4
mp-556531,5.5859,LiSi2BO6
mp-13514,5.0609,NdBO3
mp-27880,0.9755,Nb3Cl7
mp-757115,0.7755,KSb5O13
mp-5965,3.2791,Tb3Ga5O12
mp-27477,0.9935,TcOF4
mp-865526,2.6293,TmSb(PbO3)2
mp-696804,3.0784,RbHS
mp-12725,1.3296,NbAgO3
mp-540993,2.3911,NaMo6Cl13
mp-557650,4.4971,Sr3P6(N4O3)2
mp-559270,0.9519,RbBa4Sb3O
mp-558553,1.9373,Sr4Ti5(Si2O11)2
mp-764760,2.121,LiVOF3
mp-780239,3.4327,Na6Sn2B4SO16
mp-17377,3.1636,KNb(PO4)2
mp-560021,1.5561,AuS3(O3F)3
mp-27141,5.5569,P2H8O9
mp-8615,2.4588,NbBO4
mp-759750,3.1627,BiOF
mp-572726,1.9449,SbSeCl7O
mp-7089,1.2673,KMgSb
mp-558754,4.434,Sb4OsC6(O3F11)2
mp-558826,7.4002,KHoBeF6
mp-559313,5.3664,SiO2
mp-15012,2.7645,KBS2
mp-7547,0.7357,BaSe2
mp-773047,2.2181,KNb2PO8
mp-23022,5.4695,KClO3
mp-559540,4.5391,RbZnSClO4
mp-557467,4.7265,Li4Ca(BO3)2
mp-555321,4.6575,BaNiF4
mp-568937,4.0444,Cs3Y2Br9
mp-28143,2.1222,H8S5N2
mp-23876,4.9874,H8S(NO2)2
mp-560870,3.9868,BaGa2B2O7
mp-555300,2.7963,Na2Zn3(SiO4)2
mp-642817,3.6397,KHO
mp-942701,2.9218,LiCoSO4F
mp-505362,1.5802,Ca(LuS2)2
mp-534773,4.0697,Na2Al17Si11B7(H3O31)2
mp-7922,2.1084,CaPdF6
mp-997089,1.1674,NaAuO2
mp-556633,2.5442,Na3VF6
mp-29708,0.9085,Hf(Te4Cl3)2
mp-779602,0.4995,Li3Bi3P8O29
mp-1001831,1.4331,LiB
mp-1019512,5.2953,AlPO4
mp-540707,2.6097,Cs2Sn(GeO3)3
mp-770517,2.829,Li9Al(NiO4)2
mp-733650,0.2467,CuH6(SeO4)2
mp-704236,0.7477,Mn(PO3)3
mp-569465,1.068,Cs2Nb6PbCl18
mp-615173,1.2616,CuBi(WO4)2
mp-6326,4.8474,LiAlSiO4
mp-754599,3.2297,BaTm2O4
mp-775008,1.0857,V3Cr(PO4)6
mp-20778,4.4623,Dy2Be2GeO7
mp-5803,2.1647,NbPO5
mp-541037,1.1239,CsCuO
mp-31953,3.8582,Li2MnP2O7
mp-706621,5.635,KB5(H2O3)4
mp-23017,1.6383,CsCu2Br3
mp-556477,4.2765,Lu2O3
mp-662556,1.9379,Re(TeBr2)2
mp-756034,3.9782,NaSmO2
mp-773188,2.4281,Na3MnBSO7
mp-977371,0.5707,PW4Cl11
mp-28542,5.2282,Na3ErCl6
mp-676167,2.3958,Tb14Ti10O41
mp-757336,2.0236,Hf2N2O
mp-743624,2.6769,Ca5DyTi5Fe(SiO5)6
mp-6059,6.464,Cs2KYF6
mp-29463,2.6891,LiBeN
mp-561113,0.4807,Ag2BiO3
mp-768263,2.4346,Ba2La2O5
mp-31560,3.154,Li2Co(PO3)4
mp-774408,1.0062,Li10Mn3Cr3(NiO8)2
mp-647116,1.4522,ReNCl4O3
mp-733598,2.7728,H9PtN2ClO2
mp-23979,3.5508,K3H(SeO4)2
mp-761033,3.1617,Hf3N2O3
mp-557892,2.8361,BaLi(BS2)3
mp-761857,3.0096,LiNb(BO3)2
mp-767597,1.9944,LiMnF5
mp-740714,6.0815,LiB5H2O9
mp-505274,5.0266,Na2SO4
mp-557842,5.4532,AlPO4
mp-568328,0.8437,FeP4
mp-504807,5.1399,MgP2H20C4(N2O3)4
mp-23426,2.7751,Al4Bi2O9
mp-27580,3.5393,Zn3(AsO3)2
mp-775205,4.1759,Li3MnP2HO8
mp-34116,2.3789,Tm2MgS4
mp-567655,4.2037,Sr2C(NCl)2
mp-558864,1.417,CrHgF6
mp-776579,2.8015,Ba3(YI6)2
mp-772878,3.6367,Ba2SrI6
mp-583297,2.2867,Ba6Nb4S13O3
mp-571555,1.4781,InCl
mp-642736,2.9757,K3H5Pd
mp-28877,0.6313,Cs2SnTe4
mp-779366,2.6051,LiCr(PO3)4
mp-772296,2.1917,ZnCrO4
mp-1007823,3.1499,GaBN2
mp-22375,0.2915,In2S3
mp-3777,2.864,BaSiN2
mp-643371,2.404,K2Sn(H2N)6
mp-640057,1.6139,K2OsNCl5
mp-558393,2.3114,Rb2Nb3Cl7O5
mp-554279,2.7276,Tl3Hg2S3ClO12
mp-555044,1.6177,DyCuS2
mp-554258,5.4439,SiO2
mp-760683,0.8043,Li4Cu(PO3)6
mp-570876,1.5137,NaNd(GaSe2)4
mp-1016825,0.7867,HfMgO3
mp-17063,0.8203,BaLaCuTe3
mp-756564,4.0209,BaYCl5
mp-26113,0.2869,LiTi(PO3)4
mp-17638,1.3197,Rb3SbSe4
mp-554286,1.3379,La6Ti2S8O5
mp-707836,3.3105,Na3H6Ir
mp-776359,2.5229,YNb2NO5
mp-680063,3.4662,K3La2(NO3)9
mp-643154,0.0067,Li3V2(PO4)3
mp-39208,1.2264,BaLaTiCrO6
mp-849421,0,LiV2(PO4)3
mp-707501,3.4344,CdH24C4(BrN2)6
mp-773145,1.3563,Li2Cr4O13
mp-651728,1.1919,VSb2NCl14
mp-8610,2.1611,Li8PtO6
mp-505495,3.7546,KP4N7
mp-1001023,1.686,BeC2
mp-743584,3.6578,H12WN3(OF)3
mp-24522,0.3583,CuH2SO5
mp-10401,4.3135,Tl2SnF6
mp-557024,5.6788,SiO2
mp-15362,4.7404,Li3Nd2(BO3)3
mp-3960,2.1169,CaUO4
mp-30530,4.5806,TlClO4
mp-754598,0.4431,Hg3SeO6
mp-27146,1.5895,Cs2Sb4S7
mp-17697,7.1568,KSmF4
mp-558521,3.9475,B2Se2O7
mp-754739,3.9115,CaBe3O4
mp-12156,1.1985,K3Sb5O14
mp-648932,1.3728,Nb2PS10
mp-709066,5.0068,Rb4LiH3(SO4)4
mp-753173,3.4617,HoIO
mp-696157,5.2186,NaP(HO)6
mp-23644,2.0541,Hg3AsClO4
mp-627119,0.6176,VHO3
mp-569349,1.379,Rb2HgPSe5
mp-8145,3.3017,RbScO2
mp-23818,2.266,BaLiH3
mp-703343,3.9975,Li2Sn(H5O4)2
mp-757945,3.5824,LiSnPO4
mp-779703,1.4099,Na4Sn5O12
mp-24391,5.0801,MgB3H15O13
mp-10234,2.5726,Sr2BN2F
mp-4170,2.2711,NaTaO3
mp-561255,2.5958,ZnBi6P2(O7F)2
mp-772782,0.2609,K2CePCO7
mp-14782,1.3409,Na6MnTe4
mp-1270,0.5938,Dy2S3
mp-7100,4.5776,LaOF
mp-560553,0.7648,IrF6
mp-541813,6.6647,RbMgF3
mp-2455,0.6307,As2Os
mp-780671,0.7384,SrTaNO2
mp-557825,4.7053,H4CN2O
mp-19352,3.8854,KAl(MoO4)2
mp-27630,1.4078,CrCl3
mp-36734,1.6654,CeThO4
mp-601348,4.9842,LuP2H4NO7
mp-779165,1.4327,Li2MnF5
mp-782639,2.9175,Dy2WO6
mp-542515,1.2376,Gd2Te4O11
mp-34260,4.3589,ZrF4
mp-704630,0,Be3Fe4Si3TeO12
mp-17715,3.229,SrTa2O6
mp-560981,4.6217,NaMg4(PO4)3
mp-569842,0.2539,Ba3SiI2
mp-12668,3.0033,Tb2SO2
mp-18182,3.4819,CsNa3TiO4
mp-567558,2.2017,CsAgCl2
mp-763484,1.7313,Fe4OF7
mp-41837,3.1733,RbTiZnOF5
mp-9113,3.8666,CsBeAsO4
mp-572741,2.3455,CsUP3O11
mp-850277,3.5551,SrCaI4
mp-645555,1.9565,KUVO6
mp-707457,5.2772,KMg2B12H19O30
mp-17490,0.3768,Rb5SiAs3
mp-7595,4.0002,GeF2
mp-555816,3.4724,KDy(SeO4)2
mp-27200,2.7671,B13H19
mp-753891,0,ZrTiO4
mp-27622,2.4078,Na2PbO2
mp-30156,2.2065,LiMgN
mp-17875,0.8224,Ca6GaN5
mp-17637,1.9514,USO6
mp-541280,3.9479,BaLaGaO4
mp-29606,1.4095,Rb2Zn3O4
mp-769620,1.9311,Li2VCrO4
mp-756424,3.1334,GdLuO3
mp-754326,0.5906,NaAgO2
mp-16587,2.6107,Dy4Si2S3O7
mp-861868,3.7163,KNaLaTaO5
mp-27376,4.3121,Rb6Si10O23
mp-779357,2.1827,V3OF11
mp-6872,3.3592,K3SiN(OF2)3
mp-684721,0.2589,TiNb2Zn(PbO3)4
mp-669445,0.523,Cu2Bi8Pb6S19
mp-625521,4.4259,H3BrO
mp-28387,1.2867,PAuCl8
mp-36641,0.6336,Cd(Ga3Te5)2
mp-776979,0.6782,Li9(CoO4)2
mp-5760,1.2363,NdSF
mp-8590,6.7637,K2HfF6
mp-1008395,2.547,C
mp-765718,2.0858,LiCo2OF3
mp-619475,2.8816,RbFeF4
mp-12441,4.8499,CaAl2O4
mp-776491,5.4582,Lu2P4O13
mp-770492,1.2313,Li24Mn11CrO36
mp-744434,3.6877,YNiH3SO7
mp-559932,4.2121,KTeOF3
mp-573888,3.6349,Ba2ScCl7
mp-15649,0.8486,As2Ir
mp-989192,2.577,SnClF
mp-771976,3.6274,Rb2Be2O3
mp-1087,2.5006,SrS
mp-23801,1.8587,K2H2IrCl5O
mp-759793,2.6008,LiTi2(PO4)3
mp-676779,5.8348,NaHo2F7
mp-531195,1.2984,Sr2NF
mp-770752,1.7063,Ce(WO4)2
mp-39770,4.2949,Zr2P3H4NO12
mp-6419,5.6645,CaSi2(BO4)2
mp-643460,1.8808,SnHg2(SBr)2
mp-775284,1.5351,Li2Mn3NiO8
mp-4876,1.0585,Tl3SbSe3
mp-30245,3.5652,Mg3H4O5
mp-704879,2.7884,Ni5Te4(BrO6)2
mp-574148,3.7076,K2ZnN12
mp-34508,2.1281,Sr(SmS2)2
mp-7456,3.2629,SnF2
mp-3094,4.1414,SrAl2O4
mp-756175,2.8026,Zr2Bi2O7
mp-14395,3.4604,NaAlAsO4F
mp-648992,3.0432,Na6Mo10O33
mp-23259,4.9246,LiBr
mp-705530,3.6255,P3H4N5Cl4
mp-690537,1.0501,Co2Bi11O20
mp-695948,4.1913,PH4SNO2
mp-37310,2.5756,Dy10Ti6O27
mp-772740,2.5349,Ba4Lu6O13
mp-28548,3.4877,Li8GeO6
mp-766317,3.8409,Ba2CaI6
mp-545404,2.6616,SrGd2Al2O7
mp-541946,1.4535,K2Th(PSe3)3
mp-760400,0.8482,Na5BiO5
mp-770516,4.7339,Tb2(WO4)3
mp-505562,1.4791,CrCuO2
mp-756854,1.7817,Sr2LiNb3O10
mp-733612,5.6717,RbH3(SO4)2
mp-572442,2.1845,Cs3Nd(PS4)2
mp-1011860,3.0147,Na2CoP2O7
mp-770853,2.6148,Li2CoPO4F
mp-608314,4.4429,Rb2ZnCl4
mp-3992,1.2541,PrSF
mp-7404,2.1241,Na3SbO4
mp-680205,2.3541,PbI2
mp-760462,0.5447,Li5Ti(SiO4)2
mp-765508,1.1872,V3(O2F)2
mp-676360,2.0201,NaNdS2
mp-777681,2.515,Li3VF6
mp-13800,3.5932,Cs2NaTlF6
mp-554059,1.8076,Sr2UZnO6
mp-989609,1.1563,YWN3
mp-15661,0.327,Sc4C3
mp-30130,2.2338,Bi4I2O5
mp-569109,0.7008,MnBiSe2I
mp-4887,0.6481,BaCeN2
mp-28579,1.3764,Hg3(TeI)2
mp-3917,1.0893,Cd2GeO4
mp-696130,4.4537,Li10Ge(PO6)2
mp-775232,1.2536,LiCr4(PO4)3
mp-6628,2.3894,CsCd(NO2)3
mp-25579,1.2017,YMo3O8
mp-29792,1.2776,CaNb2O4
mp-558536,1.9457,RbCdAuS2
mp-567713,0.478,Nb3TeI7
mp-985278,6.0891,AcF3
mp-765511,2.2591,Li6VO5F
mp-556801,4.7576,Na3B6PO13
mp-6353,3.1043,Y2Si4CN6
mp-561384,4.8934,ZrF4
mp-3822,4.4256,SrCO3
mp-560067,1.261,AgHgSBr
mp-22993,2.6076,AgClO4
mp-644203,3.1884,CsCaH3
mp-5327,2.1455,Na4UO5
mp-862893,1.9434,ThNb4O12
mp-6607,4.4383,Ca5Si2SO12
mp-17380,1.3251,Ba2Ca(PdO2)3
mp-863365,3.7983,Li2Sn(PO3)4
mp-5634,4.5309,NdOF
mp-9565,0.7931,Ca(MgSb)2
mp-861898,1.5585,Rb3GePSe7
mp-975,5.8786,SF6
mp-2175,2.2093,TlF
mp-558143,3.0309,Pr4S3NCl3
mp-562854,2.4847,CsNb2BiO7
mp-759381,3.1087,Li3Bi2(PO4)3
mp-559783,5.1674,Na3B(PO4)2
mp-559790,2.2949,K2Nb3Cl7O5
mp-759307,2.0465,TiNb2O7
mp-23929,3.4231,ZnH8(NO5)2
mp-765750,1.0443,Li5Cr2Fe3O10
mp-31890,3.9187,Li4Fe(PO4)2
mp-581194,5.9417,CsB5O8
mp-770967,4.0783,Li2MnP2O7
mp-568392,0.7546,Ag10Te4Br3
mp-7087,5.3645,SiO2
mp-686057,3.0396,LiNbO3
mp-762633,0.6651,LiMn2NiO6
mp-18138,1.2241,K2WSe4
mp-567710,0.4675,KPr3Te8
mp-776325,4.382,Sc2H6(SeO4)3
mp-8869,2.5518,Y2S2O
mp-28046,1.6561,AlP2I9
mp-17897,5.0221,RbYP2O7
mp-19163,4.6567,SrWO4
mp-774712,0.8512,LiCuS
mp-17827,1.4505,Nd3SiAgSe7
mp-8279,0.6836,Ba(CdP)2
mp-14883,0.4663,Ba4Zr3S10
mp-774567,3.2959,Er2TiO5
mp-30120,1.1394,K3BiO4
mp-744600,1.9434,KVH2SO7
mp-31269,5.0884,Na2S2O7
mp-23147,4.6098,Na4Al3Si3BrO12
mp-24705,4.9626,SrCaB5H2ClO10
mp-18510,4.4698,Sr2SiO4
mp-763955,0.5371,Li4MnV3O8
mp-17672,5.7832,BaLi(B3O5)3
mp-7831,1.8377,MgIn2O4
mp-5955,4.8651,NaSbF6
mp-770633,1.1517,RbLi2Co2(BO3)3
mp-15059,4.4437,GdSnF7
mp-7644,3.5604,LuAsO4
mp-998325,3.4482,RbCaI3
mp-30012,2.3557,BiKrF7
mp-18816,2.7102,Fe2SiO4
mp-770739,2.1957,LiTiFeO4
mp-5547,5.0786,Mg2B2O5
mp-721314,5.3053,NaH2SO4
mp-697592,5.2,BePH3O5
mp-540659,4.5241,Ba(BO2)2
mp-31001,3.1105,KSb3O5
mp-4190,2.9209,CaSnO3
mp-16861,0.4837,Na5GeAs3
mp-19105,3.5676,Na3MoNO3
mp-559868,3.905,NaLa(CO3)2
mp-757850,2.3452,K4Sb2O5
mp-8037,3.2009,BaThO3
mp-769630,3.3809,Li2Mn3F8
mp-780977,3.1123,Li4MnFe3(BO3)4
mp-998712,3.1591,TlGeF3
mp-568847,2.0003,K4GeSe4
mp-623854,2.4871,NaNb3O8
mp-643043,3.1029,RbHO
mp-21960,0.3793,K9Fe2Se7
mp-555867,2.2153,BaNb2Bi2O9
mp-764891,1.479,Li5Fe8(BO3)8
mp-558279,2.7618,Tl2Te3O7
mp-754272,1.6482,Cs2Ba2O3
mp-644028,0.7612,Fe2CuAs2(HO5)2
mp-643364,2.9005,HPbClO
mp-694318,4.2477,In2(WO4)3
mp-18730,1.3712,K3Na(FeO4)2
mp-778080,5.8515,BaY3F11
mp-24336,5.3203,MgH4(ClO)2
mp-18126,1.0181,Tb3CuSnSe7
mp-680482,2.0089,AgMo6Br13
mp-1019586,4.5151,CaAl2SiO6
mp-8407,0.6161,Li3LaP2
mp-5448,2.7404,Pr3SbO7
mp-23488,0.7098,Tl5Se2I
mp-556717,2.2118,Tl3Ga9S13O2
mp-570900,1.1234,K4Sn9
mp-772783,3.288,Li2Mg3Ti6O16
mp-774721,3.4619,Li5La3Nb2O12
mp-685992,0.4223,Li2CrCl4
mp-752636,1.1981,LiSbO3
mp-677550,2.194,Ca5Al12Si12(AgO24)2
mp-754196,3.6619,Ba2SrI6
mp-6486,5.3819,SrBPO5
mp-556231,1.7866,In2GaBiS6
mp-13815,6.4984,Rb2NaErF6
mp-780395,2.901,Cd(BO2)2
mp-761019,2.1319,Hf2N2O
mp-38728,2.2746,Sr(ErS2)2
mp-571453,2.6688,K2SnCl6
mp-28842,4.2571,Si3PH9
mp-769616,2.8685,Na2CrPCO7
mp-28990,2.8002,Bi2Te4O11
mp-556635,0.576,CuBi2(SeO3)4
mp-18267,0.429,La2Cu(SeO3)4
mp-773576,1.4965,LiZn2Fe9O16
mp-630880,2.9695,LiNd2Tl(MoO4)4
mp-11124,1.453,CsLaHgSe3
mp-6613,3.362,Ba2YTaO6
mp-7257,4.5043,K3NaP2(O3F)2
mp-554463,3.9469,Na3LuSi2O7
mp-18183,4.8968,YSnF7
mp-29803,2.1427,SiH
mp-998761,3.2939,TlNiF3
mp-17743,2.1617,Sr3Sn2O7
mp-736,0.7411,Li3P
mp-775783,2.0671,Hf2N2O
mp-13978,6.2764,Rb2ThF6
mp-772552,1.8245,Li6CrO4
mp-540145,0.5434,Fe(PO3)5
mp-721650,0.6776,CaH14I10O7
mp-770727,2.6366,Li3Al2FeO6
mp-17196,2.7103,TiAs2O7
mp-558288,3.4895,CdAs2S2(OF3)4
mp-540621,3.0761,SrGa2(GeO4)2
mp-17546,0.5834,Cs2RuO4
mp-772671,1.5466,Li5CrO4
mp-759290,3.5627,Li3Bi2(PO4)3
mp-567428,1.127,Tb3CuGeSe7
mp-756494,4.2001,Na3GePCO7
mp-561290,4.7687,K2BiF5
mp-14234,5.7433,MgB4O7
mp-779982,1.9263,Hf2N2O
mp-19369,0.3076,Ti2CrO5
mp-4344,4.0558,HoTaO4
mp-1019610,4.5828,Cs2MgSi5O12
mp-697181,4.1415,CsLi2(HO)3
mp-562441,2.2692,Cs3AlO3
mp-770795,0.631,Na3CuBSO7
mp-696805,4.329,H2S
mp-1009083,1.2147,MgSnP2
mp-9056,0.9909,ZrPdF6
mp-756853,0.6781,LiBSbO3
mp-626554,4.2012,NaH9O5
mp-555682,3.0765,Sn(SeO3)2
mp-12626,7.1636,K2SrBe2F8
mp-560077,2.1909,AsSXe2(OF3)3
mp-6799,2.2125,LiCa4(BN2)3
mp-698687,3.4,K4Mn2H16S4O23
mp-561234,5.703,BaNaZr2F11
mp-8290,4.9436,BaSnF6
mp-570021,0.6648,Ti6Tl5AgSe27
mp-625447,3.7453,Pr(HO)3
mp-559378,3.5216,Ba5Ta2Cl2O9
mp-568987,4.5899,Na2BeH4
mp-4988,1.7361,TlAsS2
mp-626497,4.6973,Al(HO)3
mp-36733,1.099,La2CdSe4
mp-1019562,4.1723,Ca2SiO4
mp-5616,5.1125,Sr2P2O7
mp-707175,7.1973,BeH6(NF2)2
mp-568536,3.0499,BaI2
mp-6604,7.2052,Na2LiAlF6
mp-756166,4.3678,LaHoO3
mp-20805,0.9406,PdPbF4
mp-754409,5.1073,HoBO3
mp-20078,1.0314,Pb2O3
mp-2980,3.3018,Pr2Te4O11
mp-721582,4.0299,H2S
mp-775757,4.0165,HfO2
mp-601861,2.0973,RbInS2
mp-776970,1.1959,Li5SbS4
mp-743986,2.5683,CsVH12(C2O7)2
mp-770413,4.0237,LaHoO3
mp-772968,3.9713,LiTlPHO3
mp-772433,2.2386,Li2Cr(BO2)5
mp-22874,1.6257,PBr5
mp-555844,0.8711,MnSbS2Cl
mp-25929,3.7485,Li3Bi2(PO4)3
mp-699248,0.9371,Sr2B5H2O11
mp-31077,1.6415,Tl2TeI6
mp-23352,2.3753,Ge(Bi3O5)4
mp-29479,4.3619,C2(OF2)3
mp-8560,5.7755,SF6
mp-864801,3.1308,YbO2
mp-756435,0.9933,Sr3Nb4O13
mp-7437,0.8396,KZnP
mp-849572,2.533,Li2Fe3OF6
mp-777297,3.8504,K5H(CN2)2
mp-705713,2.5461,Bi14WO24
mp-767720,1.9011,Li2V4Si4O13
mp-10340,2.6524,Na2GeTeO6
mp-484,0.4692,Te3As2
mp-760979,3.6473,Na2Ti2O5
mp-23969,2.7049,ZnH2SeO5
mp-541094,2.4424,Ta2Hg3S(O2F5)2
mp-557414,4.2416,BaSi6N8O
mp-770771,3.4364,SrSc2O4
mp-25908,3.4585,Sn(PO3)4
mp-770956,0.646,Li2TiMn2O5
mp-644245,4.8085,Na2PH3O5
mp-6748,3.5094,Cs2Ti(Si2O5)3
mp-754827,0.417,Tm2TeO2
mp-720869,3.2245,H12C4N2O9
mp-571465,2.5592,PbIBr
mp-777444,3.4993,Li3Fe2F7
mp-8017,1.0238,AlCuTe2
mp-762264,2.6055,Li2CoSiO4
mp-16927,3.5938,NaTbGeO4
mp-761629,0.6445,Li17V16O32
mp-767515,2.2884,Gd3AsO7
mp-15865,4.0482,RbScAsO4F
mp-1019608,2.4689,Cs3BO3
mp-554138,3.5103,Pr2SbO5F
mp-756156,3.5443,Rb2ZrO3
mp-772413,4.0639,Al8SiO14
mp-2706,3.1001,SnF4
mp-850223,1.2519,Fe3OF5
mp-703276,0.4553,Ca5Al11TlSi13O48
mp-556143,1.8467,Na3Ga3(TeO6)2
mp-510490,1.1102,GdScS3
mp-542637,1.6267,K2B2Se7
mp-560894,6.2182,Li4Be3P3ClO12
mp-24528,1.1611,CrH8C4(S2N3)2
mp-866267,2.3374,YbMoClO4
mp-765725,0.5611,Na3Li5Mn5O9
mp-562420,1.6218,Cs3ClO
mp-30927,5.2808,CsAs4F13
mp-10044,1.2071,BAs
mp-757404,0.4438,Li2Cu2Si5O13
mp-19507,2.0994,BaMn2V2O8
mp-29462,0.9918,NaGa3Te5
mp-7534,0.6527,K2Cd2O3
mp-23364,5.0373,CsLiCl2
mp-651997,1.5582,Fe3(GeO4)2
mp-33857,0.8951,CrSbO4
mp-759812,2.2962,Li4Ti11O24
mp-764817,3.4156,Li2Mg11(WO4)12
mp-1020193,2.9047,KNO3
mp-28623,2.9164,Li4Ge5O12
mp-768440,1.3339,Li3VS4
mp-770842,0.2028,Li4Mn2Co3Sb3O16
mp-623058,0.6703,Ti2Ag2P2S11
mp-28970,3.343,Nd2NCl3
mp-23562,2.389,KIO4
mp-769263,2.5935,TbInO3
mp-772486,2.0964,Lu2Sb2O7
mp-6755,3.7554,KSn4(PO4)3
mp-766971,0.4624,Li4CrS4
mp-989178,4.3364,ScOF
mp-23778,5.0712,H4CN2O
mp-720212,2.4145,Rb9Na2Al11Si13O48
mp-989514,3.0683,Cs2NaSbCl6
mp-29993,3.555,TaAgF6
mp-13019,3.9692,NaLa2TaO6
mp-541870,5.2526,KAl2P2H5O11
mp-557584,3.2302,K4Ba(GeO3)3
mp-765310,2.1884,Li5Ni2O2F5
mp-558724,2.3415,La2SiS5
mp-715276,1.4248,Fe2O3
mp-7502,1.2309,K2Sn2O3
mp-569576,1.9652,La5(SiN3)3
mp-567820,1.1841,K6NbTlAs4
mp-14532,2.6839,NaTa3O8
mp-764971,1.5231,Li3Fe8(BO3)8
mp-6030,5.3234,Be3Al2(SiO3)6
mp-767644,0.6503,LiV(PO4)2
mp-541908,4.9633,KSbF6
mp-8402,6.9446,RbMgF3
mp-4747,2.7156,Ca2SnO4
mp-559985,5.3424,CaP4O11
mp-561304,1.6833,KAg3As2S5
mp-569826,1.8032,K2Ge2Se5
mp-669458,2.3629,Cs3Bi2I9
mp-17418,4.9484,SmSnF7
mp-12843,1.7908,YCuS2
mp-559574,3.4184,K3Sm(BO3)2
mp-19379,2.7686,CoSO4
mp-6248,3.4713,LiGd(PO3)4
mp-772191,3.0533,Tm2TeO6
mp-764573,1.6712,LiFe2(BO3)2
mp-554145,4.0616,Na3SrPCO7
mp-675638,2.073,Pr2PbS4
mp-36194,1.8842,Ba2TiO4
mp-752709,4.0671,InBP2H5NO9
mp-1019775,3.7754,K2Ge(S2O7)3
mp-763790,1.0871,Mn(PO3)3
mp-753544,1.2442,Li2BiO3
mp-767091,2.7647,LiNbSn3(PO4)6
mp-571298,1.9142,SiC
mp-773133,0.7381,K3CuB2P4H3O17
mp-18515,3.2482,NaGdSiO4
mp-555064,3.2847,Cd(CO2)2
mp-776611,0.4874,Li4Mn2NbNi3(PO4)6
mp-542638,1.0923,K2Mn(PS3)2
mp-772571,1.2763,Li4CrO5
mp-23799,4.5078,NaZnP2HO7
mp-754989,2.0556,Er(BiO2)3
mp-23710,3.736,MgH2
mp-18288,1.0839,Ti(SnO2)2
mp-765022,2.6761,LiVPO4