id,band_gap,pretty_formula
mp-559968,3.1219,Na2NbAsO6
mp-757144,3.5876,Rb2H8O5
mp-989543,1.0051,Cs2BrCl6F
mp-6426,3.7692,Na2MgSiO4
mp-754192,3.0451,Tm2TiO5
mp-22189,1.007,In6TeO12
mp-770036,0.6572,Li4Mn3V2Cr3O16
mp-770893,1.5985,Li4Fe2O5
mp-24118,5.5088,H10SO8
mp-2460,4.1121,Er2O3
mp-29843,1.4007,Bi2Se2Cl7
mp-556968,2.2521,RbNa3SnO4
mp-769600,1.1397,LiV2S2(O4F3)2
mp-38807,0.9237,Y7ReO14
mp-19280,1.7823,NaCr3O8
mp-770619,1.2342,Li24Mn11CrO36
mp-531956,4.1126,Hf3Sc4O12
mp-768232,3.161,Rb3SbO3
mp-19734,3.0395,MgPbF6
mp-644419,3.5253,LiHS
mp-770521,1.081,Li4V3Fe3(WO8)2
mp-29302,2.6752,Ba3(GaS3)2
mp-6211,5.2356,RbLiSO4
mp-554497,0.6645,CuSb2(XeF5)4
mp-764367,1.6946,V2OF5
mp-690511,1.4337,K10Co4O9
mp-567594,2.0645,Cs2HgI4
mp-774191,2.5013,Fe3OF7
mp-10933,1.6168,Nd2TeS2
mp-2231,0.9478,SnS
mp-567498,5.0573,Rb2NaTmCl6
mp-771640,3.4689,BaSrI4
mp-556049,4.2231,Sr4Br6O
mp-28177,2.0358,NaSbCl6
mp-541450,3.7563,In2(SO4)3
mp-16996,3.6429,Li3GaSiO5
mp-767440,1.5432,Li2MnFe2(PO4)3
mp-5048,1.5942,LiGaTe2
mp-755184,1.6797,Sm2Se2O
mp-28708,3.0693,In3(PO4)2
mp-20817,0.3358,GePtSe
mp-9383,0.3292,SrHfN2
mp-27526,5.3221,K3InF6
mp-760927,2.7733,NaTiPO5
mp-756702,3.5535,PrBrO
mp-554554,2.0563,K9Bi(PS4)4
mp-341,1.9056,PbF4
mp-850532,2.9236,LiSn2(PO4)3
mp-18819,3.737,Ni2P2O7
mp-555366,5.9305,LiHo(PO3)4
mp-705417,1.3916,Fe11O12
mp-15113,4.6833,Na2Si3O7
mp-558446,1.1393,AgHgSI
mp-543046,4.8329,CsScP2(HO4)2
mp-696961,6.0702,BeH4NF3
mp-556139,4.1552,BaZr(PO4)2
mp-22937,2.2126,Na4I2O
mp-673098,4.8044,LiBi(PO3)4
mp-17024,1.958,Ba2NbN3
mp-540633,3.1686,RbNb(GeO3)3
mp-743640,1.2976,Li3La8Ti9Cr3O36
mp-29228,3.8241,CsSrN9
mp-6968,0.9073,Cs2KCuF6
mp-630867,3.4116,RbLiNd2(MoO4)4
mp-21166,0.2885,SrCaPb
mp-31118,4.3579,SmScO3
mp-770519,2.2399,Li2AlVO4
mp-978846,1.2276,SnI2
mp-29794,1.6526,Ba2PdF6
mp-733877,5.2196,CaB3H13O12
mp-556903,4.2982,HgSb4C2(OF11)2
mp-2784,2.0282,Na2Te
mp-504968,1.305,RbFeCl4
mp-11000,6.3226,CaB4O7
mp-669377,1.8563,Ba2CaWN4
mp-554627,0.8184,Cu6PS5Br
mp-744755,2.4621,LiV5H18N2O19
mp-24625,3.8763,KHCN2
mp-14115,1.3839,LiRhO2
mp-7372,0.2459,ZnAs
mp-754661,1.6497,INO3
mp-557591,5.6144,SiO2
mp-759095,3.3194,LiSn2P4H3O16
mp-3998,3.3902,LaTaO4
mp-557656,4.4434,RbNaSi2O5
mp-998241,2.5329,MnInF3
mp-22691,0.5365,InSe
mp-5459,1.5883,Nd2TeO2
mp-984107,1.2569,K3IO5
mp-772918,2.5037,Sr3TeO6
mp-6770,0.5769,BaLa2MnS5
mp-27869,1.2595,Ba2PCl
mp-637194,3.9353,Cs3Sc2Cl9
mp-745159,3.1862,MoPH3O7
mp-4174,0.2937,HoNiSb
mp-6296,1.4058,K6Cd4Sn3Se13
mp-770372,1.7979,CeHfO4
mp-9075,0.6796,CdCuF4
mp-697811,3.7642,Li2FeP2O7
mp-3955,5.6141,AlPO4
mp-560239,2.5787,K3Ti3(PO4)5
mp-697044,1.9668,Ba2H6Os
mp-730446,5.4592,AlH10SO9F
mp-773674,1.2002,Li4Ti3V3(FeO8)2
mp-760805,1.9474,Li2AgF3
mp-10695,2.0186,ZnS
mp-6575,3.9839,Ba4Na(BO3)3
mp-761057,2.8012,Sr5Nb4O15
mp-21386,0.2367,Eu(PIr)2
mp-783910,3.458,LiFeBO3
mp-694891,3.0244,KRb2Mo(OF)3
mp-14493,1.7202,Na5InO4
mp-31691,0.7829,LiCrP2O7
mp-18348,4.3865,KGaP2O7
mp-755663,2.8154,Ta2Pb2O7
mp-849775,0.7148,Li2Cu(Si2O5)2
mp-558853,4.015,AsC3N3F8
mp-763193,0.723,Li2VO2F
mp-697133,3.0533,Cs2CaH4
mp-989634,1.4073,CaTcN3
mp-755864,0.2065,TiCu(PO4)2
mp-29909,3.9789,Ba4I6O
mp-556662,5.562,SiO2
mp-559602,2.7457,AgSb(S8F3)2
mp-8623,0.7733,K2Te2Pt
mp-17429,0.6668,KHfPdF7
mp-779354,1.6344,Fe6OF11
mp-10623,0.7531,ThSbRh
mp-561068,2.7703,BiAsO4
mp-8507,0.3903,Sr(P3Pt2)2
mp-779863,2.057,Hf2N2O
mp-754834,0.5003,Er2TeO2
mp-28858,2.1863,Na2HgS2
mp-8876,3.7267,Ca4Al6SO12
mp-31049,3.4051,NdO2
mp-770555,0.54,MnPO4
mp-13603,3.9877,CdB4O7
mp-16905,0.829,Ba2MnTe3
mp-780134,1.1803,Li4Ti3V2Cr3O16
mp-27255,1.2007,Ga2TeS2
mp-25881,4.848,LiBi(PO3)4
mp-6655,5.1648,Y2Be2SiO7
mp-504723,3.3435,Ba2NiWO6
mp-29641,0.2689,GeSb4Te7
mp-29467,3.4478,P4(SeO2)3
mp-768427,3.9626,Ba2YBr7
mp-6144,2.0952,Na2La2Ti3O10
mp-4991,2.7237,Tb2Sn2O7
mp-770342,4.3417,Tb2(WO4)3
mp-9498,3.7834,Nd2C(NO)2
mp-6238,2.8355,Ba2Ta6Te2O21
mp-23807,5.6575,AlHO2
mp-18938,3.4368,Tl2MoO4
mp-720710,4.6418,K3H2S2NO7
mp-761148,1.8013,Ti9SnO20
mp-1016928,2.5702,MgSiO3
mp-989561,4.4238,NaTl2GaF6
mp-28453,0.7334,CsAuI3
mp-556958,1.218,La4S3N2
mp-639478,5.5492,SiO2
mp-27356,3.3603,AsO2
mp-29500,4.3804,Ge7F16
mp-28320,0.8004,Pt3I8
mp-556253,4.1747,Tm2O3
mp-28606,0.7239,K3AuSe13
mp-18723,2.6796,BaV2(NiO4)2
mp-867725,2.9414,Tb3SbO7
mp-758504,4.986,K2Mg3P4(H5O6)4
mp-783905,0.9136,NaV2O4
mp-4417,6.0218,Al2(SO4)3
mp-977417,7.7925,NdB2HF10
mp-5586,4.0544,NaErO2
mp-675716,3.8786,Mg2Zr5O12
mp-762082,3.5538,ThH10N4O17
mp-699468,3.9232,CsAg(BH)10
mp-23622,4.4577,Sm3Si2ClO8
mp-19057,3.874,CaNiP2O7
mp-775374,0.3611,Li3MnV(PO4)3
mp-989516,1.1931,Cs2ICl6F
mp-774794,3.3607,Li5Sm3(SbO6)2
mp-11191,0.3864,CrSi2
mp-779518,5.2234,BaP4O11
mp-1011858,2.6849,Na2CoP2O7
mp-38008,3.6297,Li2CdCl4
mp-998428,3.6642,CsCaI3
mp-559618,3.5342,NaB(CO2)4
mp-775997,1.3052,V3P2O11
mp-694922,1.9947,BaLa5TiCr5O18
mp-29170,1.5728,Hg(AuF4)2
mp-17439,5.296,KSm(PO3)4
mp-755612,3.6351,DyGaO3
mp-746692,2.8374,K2Co3P4(HO4)4
mp-709186,5.3941,K4LiH3(SO4)4
mp-680284,1.4823,Rb6Ta4S25
mp-753868,3.5525,SbOF
mp-18975,3.0141,Na2SrV4O12
mp-15577,3.6092,Pr4Ga2O9
mp-680058,1.7338,InTeI7
mp-865322,0.309,UTlO3
mp-37024,2.5593,Ho10Ti6O27
mp-540077,0.2379,Fe(PO3)4
mp-753355,1.2991,Ce5Y2O13
mp-27231,3.6484,Li2TeO3
mp-755642,1.6264,Li3VS4
mp-18989,3.5173,LaVO4
mp-695829,3.6169,RbHSeO4
mp-27220,1.4702,Tl5SbO5
mp-3154,3.137,Sm3Sb5O12
mp-634113,2.614,Cd2H2SO6
mp-22535,2.4824,HfPbO3
mp-559894,2.6128,Sb2Te2O9
mp-643439,2.1699,BaMg2H8Os
mp-768958,4.2872,Ba2Y5Cl19
mp-560898,3.3493,NaPr(SeO4)2
mp-769488,1.3888,Na5Fe2P2(CO7)2
mp-1020012,2.7381,Li2Ge4O9
mp-767600,1.8453,Li2MnF5
mp-775156,1.2685,LiMnSiO4
mp-764642,2.4869,Li2CoSiO4
mp-23794,5.9622,H4NF
mp-24076,3.751,Y(HO)3
mp-761574,1.1863,CoSnO3
mp-643293,1.8152,SrMgNiH4
mp-673677,3.0551,La2Th3O9
mp-743567,2.9461,Li2Ti4Ni(PO5)4
mp-1013750,2.4505,Sn4SF6
mp-14437,3.6289,RbYO2
mp-778721,2.9745,Li8Mn7Fe(BO3)8
mp-23056,1.8455,Sr2BrN
mp-23781,5.2433,Rb3H(SO4)2
mp-504590,4.3501,Ca2Si3PbO9
mp-772195,4.5685,Dy3Al5O12
mp-555288,2.532,SbS(BrF2)3
mp-5104,5.1275,CaZnF4
mp-626788,3.9197,ReH3O5
mp-561226,3.7904,BTe3(OF5)3
mp-555100,2.5161,NbBiO4
mp-13820,0.9679,Cd3SiO5
mp-554899,6.9751,CsAlF4
mp-771191,0.5879,Li5Co7O16
mp-7639,0.6766,Na2CuP
mp-1022,2.321,K2S
mp-560097,3.2536,CaTeO3
mp-698527,3.1787,SbH3C2(O2F3)2
mp-705035,2.2803,Mo(PO3)4
mp-765601,1.9956,Li3V4O11F
mp-754701,3.5657,CaTiO3
mp-733637,3.5073,NaH8O5
mp-11772,2.1347,Ba3Ti3(BO6)2
mp-680334,2.0983,LaSb(SBr)2
mp-23657,4.783,Na6S2ClO8F
mp-555862,3.4444,CsZr(NO3)5
mp-765841,1.0144,LiV2O3F
mp-695243,1.9974,Na2SrLa2Ti5O15
mp-19121,2.983,TbVO4
mp-645340,5.255,Nd(BO2)3
mp-562065,4.518,PO2
mp-755703,2.0515,LiSbO2
mp-774381,1.7742,LiFe4(BO3)4
mp-560398,2.8725,K2Zn(GeO3)2
mp-774305,0.5686,LiCo2NiO6
mp-684108,0.2598,Li2Ti(PO3)5
mp-864666,1.772,Nd3SiAgS7
mp-764815,1.743,Li3Fe8(BO3)8
mp-15431,1.0249,Na2Ga2As3
mp-542813,3.6123,K2BeH4(SeO5)2
mp-850983,2.3274,Li2V2P2(H4O5)3
mp-763540,1.0992,LiNi(CO3)2
mp-23738,2.5466,RbMgH3
mp-9263,1.3347,KErTe2
mp-775261,2.7192,Li2MnFe(BO3)2
mp-768941,3.0351,Sr3TeO6
mp-557448,2.1964,Ba2CaUO6
mp-698164,5.7894,Rb2B10H6O19
mp-34078,5.3864,H3ClO
mp-754621,3.8177,Sm2Ge2O7
mp-4907,2.0852,Na6Sn2S7
mp-768303,3.9158,DyNbO4
mp-780295,1.5211,Li2VO2F
mp-647822,1.3458,Pd2S9N4
mp-27662,1.9773,CsI2Br
mp-33606,1.6289,Ba(PrSe2)2
mp-764951,1.7836,Li6V2O5F2
mp-29692,2.3443,K2TeS3
mp-769015,2.8694,DyGaO3
mp-559864,1.5193,InSb2S4Br
mp-555451,1.9851,Sr3U(Te2O7)2
mp-770499,2.1897,Mn4P2O9
mp-558137,2.7567,AlBPbO4
mp-559759,4.6961,CaAlBO4
mp-556341,1.3943,Ti4S8Br6O
mp-720111,0.3044,Na4Al3Si3ClO16
mp-1106,0.3467,Sr2Si
mp-555165,5.6905,SiO2
mp-766108,2.3985,Ba3LiTi5(SbO7)3
mp-15170,2.6129,Lu2Sn2O7
mp-1019602,4.246,Cs2Al2B2O7
mp-769039,3.0392,Dy2TeO6
mp-561153,2.48,XeF3
mp-558739,0.7259,RbSb2Au3S5
mp-760348,2.7683,Li10Zn3(GeO4)4
mp-13276,1.352,SrLiP
mp-974822,0.4224,Rb3P
mp-643265,1.9777,ReF7
mp-585184,0.8328,Mo2P3O13
mp-674522,1.3952,K6U4O15
mp-780362,4.4896,La(ClO4)3
mp-770748,2.6961,Gd3TaO7
mp-706426,5.0562,Ca2P2H4O9
mp-4790,3.8968,ThGeO4
mp-690122,1.2925,Nd2Mo2O7
mp-585241,0.5201,LiBi2(PO4)3
mp-542844,1.3542,V2O5
mp-697814,0.2841,CoP2O7
mp-7118,2.1607,Rb4SnO4
mp-561130,2.6125,Na3GaS3
mp-9774,0.6382,Ba4Sb2O
mp-996968,1.6492,AgBiO2
mp-6372,5.6758,K2Be3Zn2F12
mp-763541,0.2166,KMn2O4
mp-752453,3.0563,Sm2TiO5
mp-35717,1.5622,LiDySe2
mp-644225,2.7383,Sr2MgH6
mp-697020,4.6157,LiAlSiH2O5
mp-15107,2.1358,KSnAsO5
mp-773887,2.5766,TiBi2O5
mp-9732,0.8556,BaNaP
mp-777144,0.5439,Ti3Cu2Te(PO4)6
mp-769598,1.291,La4MnO8
mp-35281,1.7574,Sm2CdS4
mp-540082,1.3431,Mo2(PO4)3
mp-777893,2.6218,LiVF3
mp-23809,4.7937,RbScBP2HO9
mp-29412,1.2286,Ta3Br7
mp-27904,0.5675,FeSbS
mp-743568,2.1067,MnH2(SeO4)2
mp-774691,0.3464,Ba6Na2P2Ru2O17
mp-978114,1.7639,Sn5O6
mp-756148,1.2066,Sm2Pt2O7
mp-687091,2.3526,Rb2U2Mo3O16
mp-9747,4.2086,B4PbO7
mp-674333,3.9113,Na3PO4
mp-756044,3.2297,Na3AsO4
mp-767530,3.666,BaNa3PCO7
mp-769285,1.7193,Ho3ReO8
mp-766409,2.112,Li3BiS3
mp-996997,0.5117,LiAgO2
mp-625596,4.1668,H9BrO4
mp-764542,1.2877,Li5Fe8(BO3)8
mp-770851,2.1129,Li2TiNi2O5
mp-556127,4.9673,MgH6(CO3)2
mp-600071,5.4993,SiO2
mp-24212,5.1581,RbP(HO)2
mp-765093,3.4624,LiSb(PO3)4
mp-942733,4.4129,Li7La3Zr2O12
mp-6973,2.4134,CsNaS
mp-31016,3.2641,Ca4Nb2O9
mp-772220,2.8873,Li3Ta7O19
mp-694958,3.24,Na2Li5Al7Si29O72
mp-5005,5.143,Mg3(BO3)2
mp-743566,2.6759,MnFe2Sb2(PO4)6
mp-541097,2.8525,Zr3Pb(O2F3)2
mp-676410,0.7565,LuAgS2
mp-761897,0.5509,LiCuF3
mp-30133,0.6059,Ba(CuTe)2
mp-23897,3.6221,Rb3H(SeO4)2
mp-561104,3.3088,Ga(IO3)3
mp-698480,3.3641,Sb4H2SO10
mp-975505,3.278,Rb2CoP4(HO2)8
mp-541538,2.6429,K2CdSiO4
mp-743569,1.5902,MnH6(OF)3
mp-641191,2.3209,U2Tl2Mo3O16
mp-30460,0.2075,YNiBi
mp-32516,1.8246,LiV2P3O11
mp-21727,0.6881,CuGe5Pb3O14
mp-31120,4.4572,DyScO3
mp-31020,1.3799,AsI5F6
mp-997018,0.2658,AuClO2
mp-9197,4.1299,Li3AsO4
mp-580941,1.3762,AgI
mp-708035,3.4801,NaZn(H3O2)3
mp-850464,1.0896,Li5Cr4O8
mp-997041,0.4461,NaCuO2
mp-763559,1.3853,Li2V(PO4)2
mp-626449,5.6475,PH3O4
mp-752569,4.0062,La3ScO6
mp-541875,1.626,K3SnSe3
mp-763182,1.1574,Li2VO2F
mp-542654,1.18,RbIn3S5
mp-768755,3.9607,Li2Sn2(SO4)3
mp-754614,3.2481,LuNbO4
mp-19409,1.727,Mn(AsO3)2
mp-744268,3.8219,CsFeH4Cl3O2
mp-695452,1.2822,K2Al11Si13(Ag3O16)3
mp-554754,4.4703,Na2Zn(SO4)2
mp-617442,1.2101,RbTa(CuTe2)2
mp-753763,1.2784,Ce5Dy2O13
mp-10520,2.2874,LiNdTiO4
mp-23177,2.286,HgBr
mp-764723,1.367,LiFe4(BO3)4
mp-780123,0.2354,LiMn3(BO3)3
mp-773965,1.9288,Nb2PbO6
mp-767613,2.0693,RbVBP2HO9
mp-621825,4.0785,Y6Pb8OF32
mp-773017,2.4389,LiTi2(PO4)3
mp-755350,2.3535,BaLaI5
mp-19401,2.4612,CrPO4
mp-12185,0.6672,LiCu(PO3)3
mp-865961,1.3967,K3Bi(AsSe2)6
mp-772833,3.9515,Y2HfO5
mp-721182,5.3387,PH11(NO2)2
mp-17066,3.073,Y2TeO6
mp-39160,0.2646,CaTiFe(PO4)3
mp-3032,7.7372,RbBF4
mp-768250,0.3267,LiPrPCO7
mp-667368,5.6294,SiO2
mp-758660,5.5092,MgP2(H8O5)2
mp-554037,2.1171,KU2H5C4O15
mp-34978,0,Al2FeO4
mp-735504,2.422,KVPHO6
mp-18385,5.1992,Lu2Si2O7
mp-505236,1.3439,V2Hg(P2O7)2
mp-29193,2.4326,Nb2Se4O13
mp-9064,0.4793,RbTe
mp-19459,0,K2MgV2O7
mp-550433,2.6554,BeZnO2
mp-542967,4.1316,SnSO4
mp-3748,1.7996,AlCuO2
mp-504924,2.6609,Cs2Te2O5
mp-756214,4.9635,YAlO3
mp-721564,3.8647,Na3SiH5O6
mp-30998,2.8179,Ti(NO3)4
mp-735488,4.5829,RbNa3Mo2H18O17
mp-706521,4.1031,K2PH3O5
mp-849805,4.2777,B12H21C4S2I
mp-19036,1.1198,Tm2V2O7
mp-616327,1.1016,In3Te3I
mp-604229,3.6736,ZnH3CNO3
mp-705291,2.8576,LiCrP2O7
mp-17911,2.6719,Ba2ZnO3
mp-680436,0.9046,Rb2LiSn4
mp-7956,0.3986,Na3Sb
mp-755243,2.4003,Li5CuSO2
mp-28989,1.3702,Li10BrN3
mp-24216,1.3964,ZnHgAsHO5
mp-27936,4.8258,Na2SbF5
mp-29817,1.7115,GaP2I9
mp-767833,0.3843,MnFe(PO4)2
mp-780487,3.3626,LiMnPH2O5
mp-580999,0.5238,Ga2NiCl8
mp-757889,3.8844,LiSn(PO3)3
mp-9687,0.9504,K2PAu
mp-989612,1.4197,LaCrN3
mp-755056,2.628,CaPbI4
mp-683982,0.298,RuOF4
mp-1788,1.4032,As2O5
mp-29402,2.6066,KGaI4
mp-989615,2.1968,YWN3
mp-558259,2.5743,Pr3Si2S8I
mp-723175,0.5959,K4CuP6(H4O11)2
mp-7569,4.9041,KAsF6
mp-778614,1.9375,Li4Cr2Ni3Sn(PO4)6
mp-3269,6.2533,NaTh2F9
mp-3980,4.8624,LiSbF6
mp-767053,2.3685,Li2Co(CO3)2
mp-734194,3.8898,BeH8(IO5)2
mp-849798,3.1716,AgH36S8Br2(N3O4)3
mp-7385,5.5575,K2Be2PbF8
mp-21282,4.9158,Na2SO3
mp-757158,2.2154,LiTa3O8
mp-866003,2.0386,ErI3
mp-721279,5.4035,H3SNO3
mp-7896,1.6621,Cs2O2
mp-23659,4.0513,Na4Ga3Si3BrO12
mp-779057,2.1236,Li2Fe2B2O7
mp-19144,2.423,Rb2W2O7
mp-7048,4.4571,Al2O3
mp-770691,0.2059,Li3AlFeO5
mp-19226,3.8276,NaFePO4
mp-22875,2.0754,TlBr
mp-29083,4.9813,NaErCl4
mp-27430,4.3764,Sn2BF7
mp-698476,3.6838,H2C3(N2Cl)2
mp-560998,5.5774,SiO2
mp-541765,1.2553,Ba9(NbN6)2
mp-637112,1.8164,AsS7IF6
mp-560851,4.9412,CsIOF4
mp-14002,0.8242,Ba4GeAs4
mp-8299,1.1976,Sr4As2O
mp-541412,5.1175,CsYP2O7
mp-760,0.3731,FeSe2
mp-17382,3.8034,Rb2Si3SnO9
mp-560310,4.6921,SbPOF8
mp-29888,5.0121,Er(ClO4)3
mp-28759,2.7777,Al7(TlS4)3
mp-777471,3.587,Li2FeF4
mp-24363,4.9132,PH10N2O4F
mp-37405,0.5087,Al5CuSe8
mp-6259,2.1666,SrLi2Ta2O7
mp-849606,0.9245,Cr4OF11
mp-8614,3.5564,K3NdSi2O7
mp-985701,0.8121,AgAs3H2O9
mp-699888,2.499,Na2TiFe(PO4)3
mp-558852,2.8453,FeF3
mp-541522,5.3703,Na2Ca(PO3)4
mp-530033,2.4612,B8O
mp-551250,1.375,ErBi2IO4
mp-757899,2.1554,Li3Sn2(PO4)3
mp-557482,3.9536,Ca5As3O12F
mp-570157,1.6958,ZrBrN
mp-19254,4.2084,FeSO4
mp-11715,3.6002,MgSn(BO3)2
mp-721084,3.6926,H7IN2
mp-541451,4.3231,Ga2(SO4)3
mp-756655,2.4305,TiO2
mp-557715,1.8022,Cd(AuF6)2
mp-850969,1.574,LiMnSiO4
mp-677195,2.9445,Nd10Si10BrN17O9
mp-2624,1.2273,AlSb
mp-35078,0.6737,BaMnO3
mp-763051,1.8142,Li2VO2F
mp-23138,1.9099,SbPbClO2
mp-643270,3.7101,K3ZnH5
mp-28085,4.7762,KAs2F7
mp-753990,6.276,BaY2F8
mp-21794,4.7975,Sm2Si2O7
mp-768237,3.1575,Gd2HfO5
mp-29521,2.2391,RbBiO2
mp-781683,3.9737,LiFeP2HO7
mp-772439,2.4242,Li3AlFeO4
mp-760255,0.7168,Li3CuF6
mp-674366,3.6778,Tl3SiF7
mp-676250,0.4988,Bi2Te4Pb
mp-759737,1.6194,Ti3(SnO5)2
mp-17916,1.1363,Y3CuGeSe7
mp-755597,2.1661,Ca2CeO4
mp-3821,2.5783,K2PtF6
mp-672204,0.415,Ga3Ru
mp-755660,3.337,Lu3TaO7
mp-767165,1.5288,K2LiVS4
mp-943492,4.1085,LiFeSO4F
mp-686208,2.1599,Li5SiN3
mp-554223,3.5429,RbScAs2O7
mp-555858,2.0047,ZnS
mp-14398,3.7033,CaSn(BO3)2
mp-770969,1.3638,LiVSn3(PO4)6
mp-767778,1.925,Li2V3Si3O10
mp-849377,0.8951,Ni6OF11
mp-8376,6.0084,MgAlBO4
mp-510544,2.1118,SrSm2Nb2O9
mp-674981,0.2752,Ag3SI
mp-28510,2.4379,Li3BiO3
mp-743872,2.3592,VPH5NO6
mp-541879,2.3391,Rb2Ge2S5
mp-673698,0.4197,Cu2HgI4
mp-695157,3.4536,KBaIn2(PO4)3
mp-1536,0.6608,KSb
mp-690568,2.7628,V2Bi4O11
mp-558777,5.4187,KNd(SO4)2
mp-675266,2.9117,Ca3(HO3)2
mp-562920,4.7668,CsAl(SiO3)2
mp-695815,5.9704,BeP2(HO)4
mp-19116,2.5477,Sr2CaMoO6
mp-14794,0.4323,K6CoS4
mp-27093,2.6089,Li3Sn2(PO4)3
mp-1591,1.3528,Al4C3
mp-555302,3.4229,CsFeF3
mp-2646,0.0964,Mg3Sb2
mp-771348,1.3507,LiZn6Fe17O32
mp-30299,3.8842,RbAsO2
mp-771325,0.3435,Dy2Cu2O5
mp-27865,4.4851,KMgCl3
mp-17313,5.1747,Mg3BeAl8O16
mp-559557,4.7115,Cs2Na2B10O17
mp-770531,0.8536,MnP2O7
mp-698491,5.1723,NaCa2Al4H8C4ClO20
mp-989513,1.2838,SrWN3
mp-18504,0.6218,Ca3(GeAs2)2
mp-774723,0.5787,CuH12C3SN6O7
mp-985586,1.8795,Na3BrO
mp-28789,2.0857,Na4Cu2S3
mp-851110,2.0466,Ba9La5I33
mp-1013760,1.1683,Sn5(S2Cl)2
mp-541707,0.7283,K6Na3AlSb4
mp-626143,4.1941,Mg(HO)2
mp-5513,1.9756,Tl3VS4
mp-704206,1.6056,Fe9(PO4)8
mp-39419,2.5155,NdTiCdSbO7
mp-10925,2.0613,Pr2Se2O
mp-779552,2.6398,ZnTe2O5
mp-558023,1.8279,Rb2Sb4O11
mp-30315,0.5682,Ca3BN3
mp-561369,3.33,K3Bi2(AsO4)3
mp-643392,4.285,Ca(HO)2
mp-540696,0.8277,Ca3(SiAs2)2
mp-772430,2.15,Li2AlFeO4
mp-32906,1.9204,La2S3
mp-774399,3.4196,LiMnF3
mp-12797,5.5706,BaBe2Si2O7
mp-19017,3.9209,LiFePO4
mp-866481,0.4171,Co2(SnTe)3
mp-568525,0.9081,Sr2SnSe5
mp-762032,2.3023,Ba4Li4Ti19O44
mp-760405,4.5589,ErBO3
mp-754453,0.5629,LaTiNO2
mp-778973,3.339,Zn(NO3)2
mp-28243,5.1482,RbLiCl2
mp-755358,3.6606,LuAlO3
mp-18108,5.4555,Dy4(B2O5)3
mp-22428,2.2802,SrCeO3
mp-12911,0.2406,Ba2LaRuO6
mp-704183,0.8997,LiMo2PO8
mp-4052,0.422,Rb2Mn3Se4
mp-758651,3.636,Li3Sb3(PO4)4
mp-777065,0.9334,NaMnPCO7
mp-643564,4.134,FeH2SO5
mp-540866,3.7262,Na6Mg2C4SO16
mp-6446,4.0127,Ba3La2(BO3)4
mp-558248,3.1505,PrTa3O9
mp-29163,1.2999,Ag2TeS3
mp-764629,2.9785,Rb3NaV4H2O13
mp-557730,5.5908,Dy(PO3)3
mp-5709,2.6391,Tl3PO4
mp-15095,3.4391,Ca3Si2SnO9
mp-745047,2.7076,CrH20S2(NO7)2
mp-12954,1.7434,CuBS2
mp-8837,0.3048,Ba3Er2Cu2PtO10
mp-15074,0.3274,Sr(PIr)2
mp-6987,0.4851,Sr(GaTe2)2
mp-772780,4.0026,K3BePCO7
mp-768197,1.3544,Li5SbS4
mp-558130,0.8541,MnBiS2Cl
mp-769569,0.4343,Li6MgNi7O16
mp-667372,2.9436,Ba8Zr3(SbO6)4
mp-776849,0.9456,Li4V3Sn3(SbO8)2
mp-707960,4.6886,ZnH12C2(N3Cl2)2
mp-17243,1.2353,Pr3CuSnSe7
mp-13687,0.5737,Cs2KAgF6
mp-867612,2.7677,Zr5Ti7O24
mp-559070,3.2671,Li2Hg(PO3)4
mp-755757,2.3636,Li2Sn(BO3)2
mp-568968,1.4736,K2SnHgSe4
mp-36890,1.9848,TaBi3O7
mp-770332,3.738,NaBiCSO7
mp-721617,4.7556,KMgP(H6O5)2
mp-6539,3.0132,RbTiPO5
mp-34584,2.3774,Zr4N2O5
mp-623024,4.3841,TiCdF6
mp-12457,1.7001,LuCuS2
mp-7562,2.5587,TaTl3S4
mp-20212,0.5946,BaPr2CuO5
mp-568116,3.7155,Lu2(CN2)3
mp-10489,1.3974,Cs2Ti(CuSe2)2
mp-772665,2.2718,BeCrO4
mp-619575,2.4608,ClF3
mp-8882,1.3002,GaP
mp-29873,3.1707,Rb2CdCl4
mp-752922,5.388,Li8HfO6
mp-571169,1.2182,InBi2Se4Br
mp-14926,6.3653,Sr2ScF7
mp-570828,0.8828,AlHg2SbCl4
mp-676456,3.5072,Sr6La2Ta3Al5O24
mp-768611,2.3958,Ba3(YI6)2
mp-558480,5.0484,K2P2O5F2
mp-780231,1.9408,Hf2N2O
mp-17975,5.089,KSrPO4
mp-2652,4.056,Y2O3
mp-778473,2.5259,Gd3SbO7
mp-776255,0.8237,Li5SbS4
mp-5418,3.9436,Li6Zr2O7
mp-29498,2.4659,WBr2
mp-540750,3.2716,CsNb(PO4)2
mp-5707,4.6201,CsAsF4
mp-18562,2.4355,Na2Si2Se5
mp-541281,3.7332,BaNdGaO4
mp-8611,2.5181,Li8CeO6
mp-625641,4.1744,H9BrO4
mp-14283,4.9384,Sr2InF7
mp-11014,4.8931,K2TeOF4
mp-649616,1.4046,Pd(XeF8)2
mp-24043,5.4552,H2O
mp-756500,3.7064,Sr2CaI6
mp-570989,0.4335,UCl5
mp-422,3.1453,BeS
mp-554740,1.9183,CdGe(BiO3)2
mp-778387,6.307,Ba5Y3F19
mp-771900,1.9464,Li3AlCoO4
mp-7041,2.1303,CaHgO2
mp-8888,2.9941,HoAl3(PbO4)2
mp-18878,2.5952,LiFeAs2O7
mp-653861,3.4821,K3Lu(SiO3)3
mp-773418,1.5142,Li2NiSnO4
mp-849409,1.2454,V4(OF3)3
mp-23909,5.1998,H6CN3ClO
mp-17518,2.4674,Sr2TaN3
mp-37478,1.6082,La5AgS8
mp-18445,1.1095,Ba2MnS3
mp-753102,1.7473,La2Bi4O9
mp-567756,1.8752,La2CN3Cl
mp-568628,2.6859,CsHg5Cl11
mp-972937,0.3916,ScAlCO
mp-559708,6.1857,Li6ZrBeF12
mp-554560,5.865,Li4Be3P3BrO12
mp-1020160,4.2221,Na3Zn(BO2)5
mp-777851,2.9372,Li3Bi(BO3)2
mp-7913,5.1459,BeSiN2
mp-756922,2.8968,Ho2SO2
mp-756318,0.3187,Al2CoCl8
mp-775971,0.2589,Li5Sn5(PO4)6
mp-605406,2.1542,RbU2H5C4O15
mp-4659,3.9273,Cd(PO3)2
mp-8759,3.865,Cs2ZrO3
mp-756190,1.2322,Cd(GaO2)2
mp-697910,3.7985,K2SiH4(NO)2
mp-561017,0.1518,Cs8Tl8O
mp-558528,2.9256,La2TiZnO6
mp-9084,1.743,CsGdS2
mp-641703,2.4173,Li7P3S11
mp-6648,5.0827,KLiB4O7
mp-19042,0.299,Ca3Mn2O7
mp-754852,3.3749,BaSrI4
mp-23361,1.7543,Li5CrCl8
mp-779739,2.0866,Hf2N2O
mp-8152,0.6905,Li2CeAs2
mp-783909,2.8862,Li2MnSiO4
mp-19130,2.9975,KNaFe(Si2O5)2
mp-769254,1.0019,Li2CuAsO4
mp-754630,3.4665,BaSrI4
mp-5263,4.4843,Ca4P2O9
mp-2139,0.5612,BaGe2
mp-677234,1.6566,Ce8Gd2O19
mp-764346,2.9931,Li2FeSiO4
mp-4004,0.5924,Ag5SbS4
mp-755239,0.5656,Ga2HgO4
mp-776408,2.4164,YNb2NO5
mp-558118,8.0889,BeF2
mp-24547,2.7238,ZnH2(SeO4)2
mp-767769,1.8174,LiVF5
mp-559637,3.4306,Dy(IO3)3
mp-850362,3.1616,Li4MnFe3(BO3)4
mp-28195,0.6374,SiAg2O3
mp-604119,4.9193,KP(HO2)2
mp-769634,2.5046,Na3CrPCO7
mp-559514,3.0838,Nd4S3NCl3
mp-771993,1.3744,LiZn2Fe9O16
mp-4547,2.0299,La2TeO2
mp-561375,0.5107,Pr10S19
mp-772586,2.4501,Li2Cr2O7
mp-569653,2.4632,SnPCl9
mp-764980,2.2836,LiMnF5
mp-684506,4.6455,LiBi(PO3)4
mp-556627,2.7133,K4GeS4
mp-763347,0.3609,Li2VO2F
mp-557835,2.9894,TlF
mp-29304,4.0139,Y2InCl7
mp-984755,2.3818,Nb4Ag2O11
mp-4673,3.9575,SrHfO3
mp-31408,5.8123,Al4(B2O5)3
mp-37722,6.1004,KBH4
mp-601286,1.2385,TbCuPbSe3
mp-780585,1.5819,Ti(FeO2)2
mp-756048,4.5066,TbErO3
mp-621924,4.4668,BaCdGaF7
mp-567864,1.3692,TlBi(PSe3)2
mp-653973,3.8885,KZnPO4
mp-643586,5.6584,CsHS2(O3F)2
mp-768108,2.4101,Na2FePCO7
mp-510073,2.3503,RbLi(H2N)2
mp-505794,3.8657,ScH6N2Cl3
mp-755139,1.8367,Li5BiS4
mp-530722,4.337,MgAl2O4
mp-6368,4.4106,CsSO2F
mp-570590,1.3878,CdBiSe2Br
mp-20980,2.4499,NaNdTiO4
mp-616255,0.5128,In2Sn3S7
mp-867663,3.9852,SmY3O6
mp-1020179,3.3133,Na6Si2O7
mp-19266,1.9746,Sr2FeWO6
mp-558535,1.554,La10Se14O
mp-556798,1.1863,AgHg2PO4
mp-23838,3.5231,Zn2PH2CO7
mp-32933,2.0033,Tm2S3
mp-961646,0.4298,TiTeOs