id,formation_energy_per_atom,pretty_formula
mp-2714,-0.53495963,Pr2Au
mp-203,-0.188062777,NiTe
mp-19363,-1.614364375,HgMoO4
mp-13202,-0.614390485,YCuSn
mp-980945,0.091155507,Ti3Nb
mp-99,0,Er
mp-32857,-0.052675394,Cu13Se8
mp-760121,-1.471435542,Bi12Rh12O41
mp-780892,-1.84920708,Na4Fe2As(CO4)4
mp-3813,-2.269795607,Ba2ZrS4
mp-541810,-0.261143232,K2Ni12As7
mp-862375,-0.264206327,Sc2TcHg
mp-570203,-0.112073831,MnCoSb
mp-867266,-0.274315219,CaMgTl2
mp-560639,-1.793088929,SbS(BrF2)3
mp-752711,-1.685539973,BaSr2I6
mp-543019,-0.410135915,GdNi2
mp-561189,-3.019588833,Rb6Si10O23
mp-773453,-2.313343058,K2FePCO7
mp-690004,-2.381510978,LiCo(PO3)4
mp-614964,-2.038578501,Ba2PrCu3O8
mp-978535,0.020862812,SmDy3
mp-27891,-1.382482383,Bi2SO2
mp-2128,-0.234404453,Sn4Pd
mp-977570,-0.046521251,LiPr2Os
mp-975256,-0.153307831,Ho3Hg
mp-12699,-0.785219819,Ca3Au4
mp-19178,-1.049624885,CoAgO2
mp-541367,-2.737200313,SrCd(PO3)4
mp-722267,-1.527483461,Na5H7(Se2O9)2
mp-764643,-2.373342713,Li5Fe8(BO3)8
mp-677573,-2.560999187,NaCa2Mg2(AsO4)3
mp-16847,-0.394534111,K3Na2SnP3
mp-980387,-0.794295575,DyYIr2
mp-697076,-0.436259756,Ti3Zn3C
mp-772562,-3.149479803,Nd2V2O7
mp-669923,0.070243204,UGa
mp-559808,-2.487640433,Cs3PO4
mp-554255,-1.669242719,Ba3(PS4)2
mp-28179,-1.913967187,NaTaCl6
mp-743636,-2.27544212,NaNiP2HO7
mp-566150,-2.175574152,In2Cu3(PO4)4
mp-772750,-2.603556516,Li3MgPCO7
mp-997038,-0.675800979,AgPdO2
mp-504474,-2.967902415,TbHO2
mp-756531,-3.075241514,LiNd6(CuO6)2
mp-18902,-2.343672827,Li2WO4
mp-864959,-0.263072951,Dy2CuOs
mp-11492,-0.518620336,LuNi2Sn
mp-581584,-3.218552766,Cs2U(SiO4)2
mp-865689,-0.531386621,Y11In9Ni4
mp-5181,-0.902078146,LuSnPd2
mp-770190,-2.716332348,Li4V2Si(PO6)2
mp-23116,-0.841265508,CuBiSeO
mp-569028,-1.21179556,Rb2SnBr6
mp-985292,-0.570445856,AgBO3
mp-997002,-1.160758846,KAuO2
mp-8070,-2.988553665,Li2BeSiO4
mp-774335,-2.342798003,Sn2P2O7
mp-685266,-0.794896563,LiMg7N5
mp-31189,-0.195406547,DyBe13
mp-11703,-1.073813855,KSbS2
mp-631521,1.19489645,BaHfMo
mp-705354,-2.47730802,Mn4(PO4)3
mp-677445,-2.007313332,Y4SiS3
mp-673682,-2.504025279,Tb2YbS4
mp-31171,-0.150383567,Zn2AgAu
mp-624187,-0.722359476,Y5Bi3
mp-8469,-1.934966877,Li8IrO6
mp-863370,-2.934528125,K6Nb11O30
mp-8754,-0.990486755,NaLiTe
mp-650442,-0.259537624,Tl3AgTe2
mp-7768,-2.090240167,Th2SeN2
mp-555280,-1.128590515,ZnS
mp-6294,-2.89822099,Sr2ErRuO6
mp-556377,-3.009548821,Ba17Dy16Zn8Pt4O57
mp-999136,-0.644168038,TaInSe2
mp-626264,-1.472205317,Ba(H8O5)2
mp-560131,-3.197425141,SiO2
mp-770856,-2.267847699,Li2MnCrO4
mp-721013,-2.008054437,ZnGaP2H4NO8
mp-574438,-0.32502285,ThRu2
mp-541636,-2.942012078,KEr(PO3)4
mp-706325,-2.836901436,CaDyMnSnO6
mp-669564,-1.013707043,CsRe6S8Br3
mp-766834,-3.256461302,Li7Ti16O32
mp-31167,-0.699118623,Er5Si3
mp-754711,-2.513756003,Nb2Pb2O7
mp-3982,-1.388657556,KCuO2
mp-11031,-0.491539824,CeAl7Au3
mp-738654,-1.341245424,UH16C4(NO3)4
mp-726,-1.171747232,SeO2
mp-866650,-1.343918114,La2Si4CN6
mp-723044,-0.973275518,ZnH12N3Cl5
mp-758413,-1.463707323,Na2CdO2
mp-1018161,-0.03216905,CrNiSb
mp-557505,-2.936290243,KUP3O11
mp-8630,-0.696009035,SbIrS
mp-561172,-1.697224742,BaBi4(BrO3)2
mp-972876,-0.134021525,Sc3Cd
mp-582736,-0.733711032,Eu(MgSb)2
mp-759346,-2.202438872,LiCuPO4
mp-541846,-2.378099618,P4O9
mp-571305,-1.437648413,RbCuCl3
mp-770812,-3.543471579,SrCe2O4
mp-1013583,-0.617001084,Sr3Sb2
mp-505104,-1.218782124,Cu3BiSe2ClO8
mp-10180,-0.661341363,Li2SbPd
mp-1014332,3.194806048,C3N
mp-672306,-0.476915717,Ba6In5N
mp-7720,-0.422716375,Ce2Ga10Ni
mp-569484,-2.206720584,Cs3Ti2Cl9
mp-754019,-2.571986472,Na4NpO5
mp-780526,-2.19377985,Li2MnCSO7
mp-20610,-0.997978847,LuGeRh
mp-851257,-3.052920135,V2OF5
mp-558706,-1.231272566,RbGa3S5
mp-557599,-0.927959641,Rb2Bi(ClO4)5
mp-988939,0.134439353,AlAs
mp-722686,-1.569377739,SiH10C2N4(OF3)2
mp-8065,-3.369776179,K2Ti6O13
mp-850669,-3.513141469,YTa3O9
mp-25960,-2.364944529,Bi(PO3)4
mp-13361,-2.164575833,Cd2Cu(PO4)2
mp-3890,0.038132494,Sm2Cr2Fe15
mp-971669,-0.022762506,FeSb3
mp-12049,-0.849166195,Nd2Sb
mp-697236,-1.670867082,MgH2(SeO3)2
mp-776816,-2.916285078,Li2FeF5
mp-30910,-0.182486234,Mg2Ga5Cu6
mp-29978,-4.139460854,Sr5Al2F16
mp-505528,-0.629625697,Nb3P
mp-556085,-1.591146871,Rb2LiTaS4
mp-977424,-0.503390636,Yb2ZnPb
mp-1608,-0.061768538,ZrHg3
mp-30559,-0.032001012,LaCo13
mp-768334,-2.688101167,LiMn2OF5
mp-11546,-0.475921128,TiPd
mp-765733,-1.903843525,Mn4O7F
mp-766,-0.404540837,As2Ru
mp-15641,-0.571376727,CaMgGe
mp-9010,-0.969739613,RbAuS
mp-20092,-3.481157131,EuTa2O6
mp-778219,-1.99446507,Li4Cr3Co3(SnO8)2
mp-23025,-3.6128458,LaClO
mp-27301,-1.371579486,Rb3Au3Cl8
mp-570594,-1.297009261,Sm3CuSnSe7
mp-20950,-1.031541308,Nd(SiPt)2
mp-5881,-0.581124525,CoSbS
mp-865237,-0.673964094,Tm2ZnIr
mp-5001,-0.969204078,Li3BN2
mp-1009048,-0.601010171,KAgO
mp-752670,-1.163698617,Li3FeS3
mp-30651,-0.121495288,MgGa2
mp-4189,-0.549831946,Dy6FeSb2
mp-11364,-0.049915963,TiCu
mp-979459,0.009808165,Sm5Mg
mp-22858,-0.657256468,TlI
mp-21872,-3.935665775,PrLuO3
mp-554651,-1.966193306,K3Pu(H3O4)2
mp-560512,-3.547200003,Sm2EuBeO5
mp-989556,-2.791731786,Cs2NaPbF6
mp-555026,-3.885440454,AlF3
mp-867351,0.009512172,Tc
mp-645743,-1.660895557,VAgTeO5
mp-18373,-1.389011539,ZnSe2O5
mp-790,-1.09435247,LuPt3
mp-20802,-0.682527473,Eu(POs)2
mp-569348,-0.914614616,TlGaBr4
mp-568018,-0.281226425,RbSb2
mp-778532,-2.933818735,Li2FeF4
mp-30801,-0.296813144,NdZn5
mp-720391,-2.045395301,BH4NF4
mp-1001824,1.439115241,IrC
mp-1008676,-0.430449382,TiS2
mp-782667,-2.663935978,Li2MnSiO4
mp-30293,-1.305611828,Sr2GeSe4
mp-1018728,-1.544931871,HoSe2
mp-771208,-2.663928848,Ba5(Ga3O7)2
mp-638206,-0.810915929,P3CN4Cl7
mp-540728,-1.741528978,K2Zn6O7
mp-559917,-1.289654387,P2NCl5O
mp-569983,-0.25712919,Ni2PdSe2
mp-12813,-0.600446892,YbIn2Rh
mp-558427,-2.381636291,Na6Mg(SO4)4
mp-542730,-0.526335972,V8C7
mp-780799,-2.48224567,Li8Mn5Fe3(BO3)8
mp-752890,-1.505555814,LiCu2C2O7
mp-981391,0.471973723,Hg3Ir
mp-978969,0.092248655,TlAu3
mp-531064,-0.885252138,KMo3Br7
mp-770359,-2.607724943,TaAsO4
mp-1387,-0.135952105,AlV3
mp-15021,-3.458116323,Ba3Ta5O15
mp-21780,-0.971698341,SmSi3Rh5
mp-580886,-1.473793419,ZrIN
mp-1020025,-2.790228117,LiB3O5
mp-763577,-2.806622071,Li3Ti2V2O8
mp-998391,-1.06024993,RbTlBr3
mp-754163,-1.981951331,BeClO
mp-849515,-2.574834772,LiMnPO4
mp-997084,-0.969029454,RbAgO2
mp-541066,-0.358280146,Mg2B4Ru5
mp-760378,-3.223240013,LiTi2O4
mp-16903,-3.38782364,SrSbF5
mp-754204,-3.188629219,LiGdO2
mp-23931,-2.019351525,LiPH2O3
mp-19821,-0.081785282,Cr2GeC
mp-775922,-2.861542466,SrNb3NO7
mp-705894,-1.63128698,RbSi2Mo3P6O25
mp-3800,-3.243917219,Yb3Al5O12
mp-20022,-0.877186477,CeGeIr
mp-705069,-2.611785081,LiMnPO4
mp-647218,-2.329801015,Re2P2O11
mp-983566,-0.48459775,Ca2AgGe
mp-1097,-0.814792498,TaB
mp-763259,-2.568136373,Mn3(PO4)2
mp-777919,-1.59038914,Na3CoO3
mp-981367,-1.645253093,SrTlO3
mp-554420,-3.787935828,Y2SiO5
mp-977579,-0.60896502,MgSbPd2
mp-769316,-3.270397666,Li5Nb3OF18
mp-772876,-1.725689476,BaSr2I6
mp-567583,-1.524270398,CsSbCl6
mp-753506,-0.999600408,LiBiS2
mp-541637,-0.931264261,Er4I5
mp-22414,-1.075886725,CuSeO3
mp-780893,-2.089210588,Na6V2O7
mp-15155,-3.373931748,Na2Sm2Ti3O10
mp-2981,-2.418349218,CaTeO3
mp-20011,-2.021783409,NaSbO3
mp-556369,-1.09242835,CdHg2SeO6
mp-776343,-0.366652007,WN2
mp-8426,-1.098777468,K2Se
mp-997086,-1.846452605,SrAgO2
mp-27843,-2.034957633,Zn2Ge3O8
mp-680154,-2.372630064,Rb2Ti(GeO3)3
mp-23656,-2.698747467,Na4Ga3Si3ClO12
mp-1820,-2.588348227,YbS
mp-6299,-2.514523897,K2Mg2(SO4)3
mp-1050,-0.748522022,Ni3S4
mp-625663,-3.00977024,ScHO2
mp-18898,-1.122438335,Sr(NiO2)4
mp-3405,-3.37923867,NaAl11O17
mp-4006,-3.53509444,ErPO4
mp-555727,-2.9432736,RbTb(PO3)4
mp-697921,-2.162113,Mg5H8O9
mp-10366,-0.446778462,Nb2Co3Si
mp-567963,-0.734565223,Lu5Ir2
mp-559463,-1.667831918,RbMgAs(H6O5)2
mp-30622,-0.360275307,Dy5Ru2
mp-555314,-3.473758254,Sr7Zr(Si2O7)3
mp-18262,-1.660370093,HoAgS2
mp-9322,-0.723034291,Rb2Sn2Se5
mp-568790,-1.154674707,Ca14GaAs11
mp-774455,-2.379390985,Na4P3H3O11
mp-780882,-2.179965498,LiMnPH2O5
mp-622591,-3.828940339,BaTbF6
mp-985608,-2.68736049,Nd2O5
mp-33775,-1.819191198,La5AgSe8
mp-19014,-2.636326391,Sr2CdWO6
mp-560863,-2.172681462,ThSe2O7
mp-5967,-0.659380736,TiCoSb
mp-557319,-1.412900752,InH8C4NO10
mp-769466,-3.058641125,Y2Ge2O7
mp-998147,-1.045729756,TlCuCl3
mp-764874,-2.349182857,Li3Fe8(BO3)8
mp-570226,-1.299602079,Sm3CuGeSe7
mp-1006150,0.680846883,Eu3Re
mp-28995,-0.130084436,Cu4SiP8
mp-980195,-0.381512495,Tm6Al7Cu16
mp-761472,-1.21334034,Co2CuO4
mp-21245,-1.08586288,CePt
mp-766237,-3.975703261,Gd3Y13O24
mp-15081,-1.893191506,Sm2Se3
mp-866620,-2.274936122,Cs2MgP4(HO2)8
mp-23170,-0.713384489,IO2
mp-776741,-2.095035873,Li2Mn3SbO8
mp-18596,-2.584475185,Ca2ZnGe2O7
mp-684623,-0.802788554,Zr10C9
mp-631352,0.622834722,NbSnRu
mp-989607,-0.599231581,LaOsN3
mp-5394,-3.489663403,LaSF
mp-675643,-2.162083265,Ce5AgS8
mp-30537,-2.846447182,TbP5O14
mp-19306,-1.843957641,Fe3O4
mp-19049,-2.220868372,BaTeMo2O9
mp-758673,-2.73391576,LiNb2O4
mp-850404,-2.38911805,Li2FeO2F
mp-5936,-1.079557513,La(SiRh)2
mp-625836,-1.051243282,Sr(H2O3)2
mp-16907,-1.713157907,RbNpN3O11
mp-8053,-0.190965942,YCo
mp-669393,-0.694989829,Dy2Fe3Si5
mp-21251,-0.323405442,UGa5Ni
mp-1019563,-3.26252397,Ca2SiO4
mp-9947,-0.202344483,SiC
mp-705305,-2.599267663,V(PO3)3
mp-9810,-0.267151839,TlFeSe2
mp-722262,-2.544573658,CaB3H3O7
mp-33449,-2.214600329,Tb5AgS8
mp-2014,-1.613274821,DyP
mp-27686,-2.369784886,Cd2P2O7
mp-776608,-3.173247388,Ca2Ti6N2O11
mp-743742,-1.789914231,Fe6H12Pb(SO7)4
mp-778584,-1.631820942,LiMn2(CoO4)2
mp-29956,-0.409367992,Hg3(SI)2
mp-8351,-3.155049966,NaAlSiO4
mp-20717,-0.198045522,CrAs
mp-558050,-2.99421666,Rb2NaMnF6
mp-581165,-1.488293643,Cs2Xe(BrF7)4
mp-5916,-0.719087732,Yb(SiNi)2
mp-677014,-3.120133871,K2ErTi(PO4)3
mp-559817,-1.387153328,Na3(CuO2)2
mp-997034,-2.004320666,BaCuO2
mp-756770,-3.070862056,UNb6O16
mp-554726,-1.851791727,KNaCu3S3O13
mp-8136,-3.499613673,ThSO
mp-861964,-0.663448057,LiLu2Ir
mp-569568,-0.570783899,Ta3AlC2
mp-770496,-2.32098015,Mg2Mn3O7
mp-755316,-2.75011079,Dy2Sb2O7
mp-762293,-2.337478936,LiCoSiO4
mp-776532,-4.018919591,HfO2
mp-17401,-0.320250478,Rb3Sn4Au
mp-770888,-2.664475715,Li4Nb5V3O16
mp-22212,-1.984802059,NaSbO3
mp-8624,-1.762993823,K2Sn2O3
mp-558775,-3.22888297,Al3Pb5F19
mp-13936,-2.983536768,Sr2GdReO6
mp-7247,-0.252416687,CeZn3Cu2
mp-636953,-0.468796599,V6Si7Ni16
mp-16886,-0.181034676,CdAu
mp-30676,-0.51066751,Zr3Ti2Ga3
mp-1915,-0.313599579,Fe2B
mp-36738,-1.696475712,Fe2CoO4
mp-5032,-2.570083202,La3Ru3O11
mp-27628,-0.527530803,Te3Cl2
mp-695799,-2.197198754,KP(HO2)2
mp-768524,-1.848355213,Ge2As2O7
mp-23888,-1.562938664,MgTe(H4O3)3
mp-567542,-0.673520546,PbI2
mp-772265,-2.429910556,MnPO4
mp-777514,-3.901034846,Y2O3
mp-29368,-3.805981236,Th2Ta2O9
mp-17615,-0.349128648,Ta5Ge3
mp-8375,-0.67622337,Th(SiTc)2
mp-4899,-0.289257299,GaAgTe2
mp-781670,-2.493098303,Li5Mn6(BO3)6
mp-11507,-0.080824608,Ni4Mo
mp-24289,-0.139256569,HPd
mp-865114,-0.226966014,NaDyTl2
mp-10254,-2.343786569,Sr2IrO4
mp-757688,-2.87939952,BaNb8O14
mp-557686,-3.694371382,ZrVF6
mp-28892,-0.597930496,PH4N3
mp-7792,-2.387622042,YScS3
mp-460,-0.30918068,PrZn
mp-13089,-0.138260389,Cu2SnTe3
mp-617283,-1.195482015,Cu2AsClO4
mp-557133,-3.038853822,Cs2KMoF6
mp-27594,-0.750506523,As4(Pb3S5)3
mp-7337,-3.25409093,NdAl3(BO3)4
mp-7192,-0.782822188,Sc2Sb
mp-21359,-0.371079964,SbRh2
mp-756544,-3.197680424,LiLaO2
mp-541310,-0.528430396,CaGaGe
mp-27466,-0.380536112,LiTe3
mp-998713,-1.364663407,TlInCl3
mp-559738,-0.865485608,SbSNCl5
mp-504540,-2.689831206,Na11U5O16
mp-28603,-1.163997765,NaLiSe
mp-999053,-0.262986878,Ti2GaNi
mp-13342,-0.625862464,ErB4Rh
mp-17960,-3.594570219,BaSm2O4
mp-753425,-1.694608817,LiCuCO3
mp-584134,-2.53276473,LiBiP2O7
mp-29748,-0.325689094,TePdI
mp-21577,-0.370382905,Na3InP2
mp-570001,-0.195784428,Al6Fe
mp-768503,-3.055639223,Lu(PO3)3
mp-673024,-2.347676813,LiSn4(PO4)3
mp-29362,-1.29638587,GaCuCl4
mp-29594,-1.573282494,La5B4N9
mp-999205,0.131655873,ScC
mp-775445,-1.733868132,Fe5(O4F)2
mp-7120,-0.389245594,Sm(AlSi)2
mp-26897,-2.517680426,LiSn(PO3)3
mp-10086,-3.362189935,YSF
mp-16877,0.027099861,Re2W3C
mp-961685,-0.856416102,NaCaAs
mp-27792,-2.035788232,K2S5O16
mp-3050,-3.701637884,Y3Al5O12
mp-13935,-3.014089698,Ba2YbReO6
mp-769633,-2.131831274,NaFePCO7
mp-1374,-0.218251814,Zr5Re24
mp-4117,-3.034623348,Li2Si2O5
mp-11183,-3.179196182,Pr(BO2)3
mp-2542,-3.125106349,BeO
mp-590,-0.288202202,NiAs
mp-19344,-1.938336238,Cr2NiO4
mp-694964,-2.786835108,Na4MnAl3Si3O16
mp-505139,-2.276045198,TiH2SO6
mp-37727,-3.68101321,Er10Ti6O27
mp-768604,-2.800787627,SrLaCl5
mp-29404,-1.185582942,La2CCl
mp-571341,-0.734923035,InHg6As4Cl7
mp-770957,-1.835817316,Be(CoO2)2
mp-655448,-0.785587133,Dy3Ge4
mp-766463,-2.655841771,Na3GaB4O9
mp-756365,-3.640531831,CaCeO3
mp-754897,-1.686306797,BaTl2O4
mp-10445,-0.625653014,Sc6FeTe2
mp-777019,-1.322543791,Li8SbS6
mp-1008923,1.203110249,CuN
mp-7580,-1.080433148,Hg3(SF)2
mp-569203,-0.559302565,Tl3Bi2I9
mp-16775,0.018526948,CdCu2
mp-558870,-2.312311077,P3RuO9
mp-30838,-0.767478275,ThPd
mp-770368,-2.578339431,Li3V3(BO5)2
mp-675681,-4.359008006,Ba4Er3F17
mp-1009071,1.467365921,IrC2
mp-3683,-0.629123218,Ho3(CuGe)4
mp-865223,-0.261493685,LuMgCd2
mp-18021,-0.069027618,Ge3Mo5C
mp-22962,-1.398882178,CsTiBr3
mp-690591,-1.4626891,Na3(CoO2)4
mp-780179,-2.404064011,Li7FeCo3(PO4)6
mp-22511,-0.648784266,Ce2MgGe2
mp-795639,0.136109454,Rb2Be4Pt3
mp-1014244,-1.05211351,ZrZnN2
mp-569240,-0.130434733,Fe3Se4
mp-556400,-1.804096421,Cs2K2TeO5
mp-625238,-1.755962219,Re2H4O9
mp-6569,-1.214952275,K3HgN5O11
mp-759131,-1.802775719,LiCu3F10
mp-19302,-2.787004595,NaCaVO4
mp-631581,1.092913245,Ag2BBr
mp-5996,-3.180710235,Na2Ti2Si2O9
mp-4252,-0.743354748,SnPS3
mp-7910,-0.380774879,Al2HgTe4
mp-16043,-0.536659305,Mg(As2Rh3)2
mp-567588,-0.755513112,DyInRh
mp-756489,-1.314280696,Li6FeS4
mp-631570,1.511566461,BaTaB
mp-980757,-0.96539125,Sm5Sb3
mp-569335,-0.206476813,Sm2C3
mp-626843,-1.170429663,Ni(HO)2
mp-1019510,-3.132047036,AlPO4
mp-8622,-0.874136642,Rb2PtSe2
mp-998965,-0.03969332,TiInFe2
mp-778756,-2.474519148,LiVBO3
mp-779846,-3.520577,HoTa3O9
mp-20880,-0.465963833,NdAgPb
mp-626654,-2.070524963,Al(HO)3
mp-558585,-1.492457152,Hg3PClO4
mp-19747,-0.244751005,Ni3(PbSe)2
mp-768139,-0.809430629,Li8Sb2S
mp-771255,-2.223047936,Cs4SiO4
mp-1013532,-0.582139355,Sr3AsP
mp-22653,-0.345731269,Eu(SiAg)2
mp-34898,-3.138980563,Zr4N2O5
mp-850904,-2.643732196,Mn2OF3
mp-1016197,-0.314389586,MgSiAs2
mp-714911,-2.522924756,V3O5
mp-675103,-2.481416476,Sr6Bi2O11
mp-677217,-1.126215986,MgMo3S4
mp-764328,-1.922362988,Na5Mn7O16
mp-754153,-1.465894022,LiH2BrO
mp-10935,-3.383735476,NaErPO4F
mp-1747,-1.024385302,K2Te
mp-780126,-2.724780559,Li3MnSi2O7
mp-21032,-0.628932468,BaIn2Pt
mp-1009792,0.453407856,RuC
mp-856,-2.129403294,SnO2
mp-551900,-2.293140002,PrBi2BrO4
mp-3400,-0.318800552,Lu(MnGe)6
mp-30326,-0.429927045,Ti5FeSb2
mp-764738,-2.336417771,LiFe4(BO3)4
mp-18367,-0.431757659,Yb(Al4Co)2
mp-977162,-0.080358631,NaTl2Pb
mp-699660,-2.468655072,KHo2Cu(MoO4)4
mp-758272,-3.153518681,Zr4N2O5
mp-41701,-2.284504887,LiCo2P4H3O14
mp-18950,-2.262231339,BaCa(FeO2)4
mp-12645,-3.320898137,LiHoO2
mp-505138,-0.402230041,K2PdSe10
mp-997100,-1.837967331,SrAgO2
mp-849327,-2.404437143,Li2Cu(PO3)3
mp-978797,0.171966291,Sm3Hf
mp-865206,-0.621198936,TmCdRh2
mp-637052,-0.400656244,Hf3(MnGa3)2
mp-861726,0.095379792,PuBiPd2
mp-774418,-2.679827267,TiV3(PO4)6
mp-30279,-2.121671667,NpIO5
mp-982443,-0.32429341,NaCaPb2
mp-31360,-1.866457084,K2Ta3Cl9
mp-559354,-2.826267554,NaNbO3
mp-30569,-0.219543663,Zr6Co23
mp-861892,-0.760851556,DyInRh2
mp-984713,-0.242735468,Dy3Ga
mp-27267,-0.323196206,ReP4
mp-7422,-0.55569235,Ca(CuP)2
mp-5450,-3.680851064,K2ZrF6
mp-17649,-2.497325713,TlSnF7
mp-769296,-1.208292181,AgH9O5
mp-758450,-1.479185823,LiCu3(CO3)3
mp-17564,-0.988936241,Ca5Sb3
mp-5942,-0.930315429,NaAsS2
mp-14716,-2.250081504,Nd2Au5F21
mp-557606,-1.468104322,SbAs3(Se2F3)2
mp-561254,-2.247279991,NaLi3GeO4
mp-767780,-2.370580695,KV4O10
mp-8975,-1.262107431,Hg3(AsO4)2
mp-18612,-1.325183438,Rb2MoS4
mp-29096,-0.510661171,Hg3(SBr)2
mp-11601,-3.202037294,NaErO2
mp-715574,-1.968802134,MoO3
mp-983850,-0.560041677,Ca2AgAu
mp-757202,-1.533215354,K7(Bi3O8)3
mp-505545,-0.689707207,Lu2FeB6
mp-776051,-2.497782224,Li2Mn2Fe(PO4)3
mp-762358,-1.938378569,LaH9(SO6)2
mp-723082,-1.450629625,Na5Te2H36AuO28
mp-568326,-0.163428781,Pr2WC2
mp-712,-0.23551518,YCu
mp-540883,-0.614046553,As2P2S7
mp-11501,-0.112687918,MnNi3
mp-571598,-0.09946631,Ga2Au7
mp-26533,-2.771262054,LiNb2(PO4)3
mp-568266,-1.218370703,Tm2NiAs2
mp-559332,-1.358716382,BiTeIO3
mp-17307,-0.506714226,K2Hg3(GeSe4)2
mp-769593,-2.422018573,Li4VCr3O8
mp-7068,-0.407911286,Sr3(AlSi)2
mp-19733,-0.216086601,Ce2In
mp-1016109,-0.079480428,ZrZn16
mp-26794,-2.361735844,Li3Cu(PO4)2
mp-553991,-2.570125824,Ti(GaO2)4
mp-1638,-0.253988797,SrAl2
mp-19341,-1.706732505,Tl2WO4
mp-770472,-4.016959485,HoLuO3
mp-11291,-0.115695567,CeCd
mp-29526,-0.622014328,BrNO3
mp-674341,-3.635083602,Sc3TaO7
mp-510633,-1.493782768,Pb2CBr2O3
mp-14901,-1.950059376,NaZnAsO4
mp-22179,-0.671188496,YTiSi
mp-1340,-0.585457847,Ga2Se3
mp-865527,-0.436769131,YAl3
mp-18979,-2.672504697,TbFe3(BO3)4
mp-20789,-0.727608464,SmInRh
mp-3219,-3.129445164,EuPO4
mp-761481,-2.467668993,Li2FePO5
mp-9323,-2.480098426,Tb2S3
mp-686836,-2.53953275,MgTiNb2(PbO3)4
mp-2583,-0.748681513,TiRh
mp-560356,-1.80982843,Sm3Si2S8I
mp-2309,-2.452468065,Tm2S3
mp-781505,-3.093552029,Ca3WO6
mp-7239,-0.480146719,PrMgGa
mp-976923,-2.097380296,NaReO3
mp-755,-0.172625313,CoSb2
mp-555805,-1.344176767,AlSCl7
mp-15707,-0.52014813,TbB2C
mp-560506,-2.857256871,NaTiP2O7
mp-555785,-3.712920396,Nd2Ti2O7
mp-755950,-3.525083163,Ba2Sc2O5
mp-12896,-0.513921406,NdAl4Co
mp-774356,-2.608117958,Li3Mn2(SiO4)2
mp-542503,-2.428867033,La9(SbO)5
mp-30779,-0.102881838,SmMg3
mp-571404,-0.261772527,Hg3(SeI)2
mp-12175,-1.143789307,Y5Pt4
mp-766416,-2.046789425,K2UH6C2SO13
mp-646392,-0.159247829,Dy3Co
mp-777860,-2.696689185,Li2FeF6
mp-744226,-1.438618628,CoP3H16N4O11
mp-7137,-3.29046085,LiTbO2
mp-549127,-2.483999078,HoBi2ClO4
mp-12161,-1.288888213,K2SrCu(NO2)6
mp-781077,-1.908815171,Fe5O7F3
mp-12951,-0.596311082,ZrGaAu
mp-17008,-2.416908257,CaTeO3
mp-22326,-0.649478059,Mg4As6Rh7
mp-757094,-3.938170774,La2HfO5
mp-554643,-2.538494459,K2SbSO4F3
mp-12607,-1.108740993,PrPt
mp-984707,0.364190214,ErTa3
mp-1163,-0.066777642,UBe13
mp-567391,-1.897364987,Dy3Se3N
mp-29243,-1.537279703,Ba3SnO
mp-570607,-1.222140492,Dy5C2I9
mp-753515,-1.881539984,Sb3O4F
mp-17856,-0.270196546,Al7CoCu2
mp-573763,-0.991893012,Cs2Te
mp-8751,-1.38989862,RbLiS
mp-4583,-0.109496454,NbCo2Sn
mp-631527,0.929525493,In2GeB
mp-675130,-1.68417856,Tb6PbSe10
mp-13536,-0.452167373,TbZnNi
mp-2874,-2.7064221,In2Si2O7
mp-5221,-0.574395662,HfAlCo2
mp-6304,-2.650975578,Sr2GaSbO6
mp-775821,-2.144327534,Ti2N2O
mp-972633,-0.270280924,SmErRu2
mp-555271,-3.269098334,Ba2Zn2ClF7
mp-559228,-1.661849851,Rb2HfS4
mp-27483,-1.879230431,Li5TlO4
mp-545706,-2.133473304,Ca3Cu2(BrO2)2
mp-775184,-2.853289645,Sc2(PO4)3
mp-865303,-0.215359824,Tm2CoOs
mp-764789,-2.665407095,LiMn2OF3
mp-17918,-2.550454423,Ba2SnS3F2
mp-651301,-2.113925039,NaIn(MoO4)2
mp-16866,-1.707183751,KNpN3O11
mp-867730,-1.917809131,Cs2SnO3
mp-549720,-1.437395446,NbI2O
mp-626411,-1.628820374,In(HO)3
mp-754516,-0.600513876,LiNiP
mp-773129,-2.531490854,LiSn2(PO4)3
mp-29645,-0.474772496,Nb2Cr4Si5
mp-983565,-0.111819666,CuBSe2
mp-550111,-2.332047991,SmBi2BrO4
mp-8251,-0.345422194,VP4
mp-754368,-1.868869389,NaSbO2
mp-11594,-0.602833803,PrB2Ir3
mp-641651,-0.326306564,U2(Al3Co)3
mp-13221,-0.16231695,NdMg2Cu9
mp-752422,-0.592575566,IClO
mp-975789,-0.083080326,PrTmMg2
mp-555214,-1.126387684,ZnS
mp-11166,-2.726664218,BaZnCO3F2
mp-866132,-0.306877652,Na2TlSb
mp-2264,-0.852920562,ErGe
mp-17817,-0.794230552,Ca3(GeP2)2
mp-977997,0.179583604,ZnMo3
mp-676694,-2.909976364,LiNbO3
mp-29226,-2.757015259,Ca3Ga4O9
mp-556757,-2.577011144,K2NaNiF6
mp-755991,-0.184184575,AgBrO4
mp-4305,-0.578629493,Er(CuSi)2
mp-32502,-2.65799459,LiV(PO3)4
mp-720294,-1.129751031,AsH18N3O7
mp-650228,-2.137998511,KIn(MoO4)2
mp-974729,-0.308508608,Nd(Al2Cu)4
mp-672274,-0.424685217,YbIn4Rh
mp-540284,-1.85530672,CuPO4
mp-568318,-0.572263577,KTaTe3