id,formation_energy_per_atom,pretty_formula
mp-662558,-0.849279632,Ce3Sb5Pd6
mp-760512,-1.663922148,LiCuCO3
mp-12659,-0.139948465,Mn2Nb
mp-13495,-0.650704305,ZrPd
mp-239,-1.555611658,BaS3
mp-758393,-2.853022143,Li3Ti2(PO4)3
mp-557979,-0.649786712,MnTl2As2S5
mp-14556,-2.91364294,SmCd(BO2)5
mp-1019324,-1.173539595,TbTe2
mp-2858,-3.837768298,ZrO2
mp-2209,-0.579850103,CeGa2
mp-22930,-2.043314239,Rb4CdCl6
mp-755895,-3.539242881,Ba3Zr2O7
mp-652364,-0.963467829,PNCl2
mp-17685,-2.36814354,Li3GaGeO5
mp-980194,0.108564179,TiI
mp-11419,-0.637689813,ThGa2
mp-865907,-0.158547024,LiZn3
mp-1480,-0.082162154,BaSi6
mp-630328,-1.853797484,Ba3FeS5
mp-26574,-2.395854331,Bi(PO3)4
mp-11625,-2.916546966,KCa(PO3)3
mp-980110,-0.522907638,Th(NiSn)2
mp-6332,-3.121086858,Li2TiSiO5
mp-648179,-2.332188756,Cs3Mn3V4O16
mp-7099,-0.413809938,NdB2Ru3
mp-573204,-2.954524581,Cs2KBiF6
mp-1832,-0.76177554,LaPt5
mp-8894,-0.170280801,U2Al3C4
mp-756168,-2.91035918,Li2Nb4O11
mp-9912,-1.000838885,Li2CeP2
mp-768982,-1.447469215,Li7NbS6
mp-554817,-2.781431021,Ba3CaSb2O9
mp-556331,-1.982261283,Sr4Pt4PbO11
mp-29473,-1.135976089,LiIO4
mp-973450,1.522122513,Hg3C
mp-554842,-2.52187748,Cs5Si3AgO9
mp-559384,-3.369598715,BaNaNdSi2O7
mp-643203,-1.081442856,Cu6PbSe2Cl5O8
mp-772423,-1.539400357,Ni(SO4)2
mp-780881,-2.168115879,Li4Mn3Cr3O12
mp-754885,-1.636358869,SrCaI4
mp-704198,-2.460778572,LiMo2P3O13
mp-560626,-2.596565855,Ba2Ni7F18
mp-776271,-2.2718336,Zr2N2O
mp-10891,-0.591935505,MnAlPd2
mp-761676,-1.778355263,Li2Co3SbO8
mp-19240,-2.803689228,ErCrO4
mp-5549,-0.439872682,MgSnAu
mp-759877,-2.672078837,Li4CuF7
mp-556450,-3.1065032,PrB2ClO4
mp-849387,-1.709558466,Cu6OF11
mp-16734,-1.044354626,SmNiAs
mp-15910,-1.945056799,Re2SbO6
mp-10344,-3.368602421,Ba2PrNbO6
mp-6662,-2.481907097,NaSr3IrO6
mp-754549,-1.33699361,Na2CuO2
mp-27352,-0.873362664,Sr(Ag3O2)2
mp-999378,-0.118961375,NbNi3
mp-10744,-0.524303804,Si3Pt2
mp-769213,-2.025949467,Dy2(SeO4)3
mp-997092,-0.27455578,AuClO2
mp-10608,-0.657918327,Y3SnC
mp-707540,-2.731556281,ZrP2(HO4)2
mp-769572,-2.763994871,LiAlVO4
mp-16137,-3.296333039,K4CaU3O12
mp-22246,-3.561548761,EuTiO3
mp-8194,-0.850338007,Ba2GeP2
mp-755368,-2.29639441,Zr2N2O
mp-866651,-1.171926359,KSiBiS4
mp-780454,-1.631825175,SrCa2I6
mp-643071,-0.548779968,Yb4Mg4Fe3H22
mp-12083,-0.22785771,CrIr3
mp-12007,-0.248839617,HoCdCu4
mp-14190,-3.471547522,NdPO4
mp-567859,-0.648807166,Sm(FeSi)2
mp-643036,-2.214943466,BaHBrO
mp-771364,-2.5181341,Li6CrSn3(PO4)6
mp-30177,-0.216686026,Y(Al2Cr)4
mp-30192,-2.99541712,Pr4Se3O4
mp-556863,-4.117863298,Ba3AlF9
mp-674492,-3.287250295,Na2U2O7
mp-5678,-0.717564385,ErB2Rh3
mp-770365,-2.785602059,LiAlVO4
mp-10910,-0.719678298,Al2Ru
mp-753122,-1.685756987,Sr2CuH2(SeO3)4
mp-705884,-2.327102029,LiFePHO5
mp-335,-0.4401859,BaGa4
mp-865897,-0.249101722,Li2AcIn
mp-555003,-2.823522968,WF6
mp-40206,-3.270384198,Ca2Nd2Nb3FeO14
mp-9454,-2.657030945,Sr3MgIrO6
mp-18740,-2.103269491,V2Cd2O7
mp-756708,-3.034136255,CaPrO3
mp-754182,-3.661336616,TbZr4O10
mp-28464,-0.158291914,Re3(TeI)7
mp-20390,-1.034705632,PrSnPt
mp-762702,-2.638434326,Li3Ti2(FeO4)2
mp-773179,-2.008047267,Li2TiCo3O8
mp-976417,-0.160593058,Nd3Hg
mp-29077,-1.652873547,LiBiO3
mp-1018062,-0.307013311,FeSnRh2
mp-977391,-0.084130848,LiNd2Os
mp-3928,-2.63473449,Na5P3O10
mp-15844,-3.085198762,TaPO5
mp-556385,-1.336094127,Cs3ZnI4NO3
mp-10956,-1.169131078,LaAsRh
mp-763241,-2.339497676,Li3Cr2P2(CO7)2
mp-22325,-2.440248595,P2Pb2O7
mp-4487,-0.469877081,Er(MnGe)2
mp-972415,-0.401086679,YErAl2
mp-553982,-2.956207912,K4In2Si8O21
mp-758253,-1.427408631,CaH12(IO6)2
mp-772799,-2.252400508,K2SnPCO7
mp-766021,-1.184987443,KH(IO3)2
mp-3758,-0.886338547,Eu(NiP)2
mp-769551,-2.299197969,V9PO25
mp-680756,-2.804438906,Na4TiP2O9
mp-8146,-3.220097059,SrPuO4
mp-1019802,-2.819994642,KAl(PO3)4
mp-773176,-2.106634786,Li2CrAsCO7
mp-763338,-2.593355395,V3O5F
mp-770507,-2.367325191,Li4Ti3Mn3(NiO8)2
mp-9457,-2.945446483,Ca3ReO6
mp-5960,-3.602489499,Ca3UO6
mp-7493,-0.612217725,CaSb2
mp-961710,-0.459015732,VSiPt
mp-764934,-0.997756019,Na(NiO2)2
mp-19891,-0.012723458,Pu2C3
mp-555457,-2.210336173,Te2S(O2F3)2
mp-862664,-3.024874847,Rb2Zr2O5
mp-31055,-1.196275778,Sc3InN
mp-9821,-2.924856841,RbSbF6
mp-13038,-2.509023556,Dy2C(NO)2
mp-35033,-1.868048415,ZnFe5O8
mp-971966,0.168108771,Zn3Sb
mp-759985,-2.438813534,Bi3O2F5
mp-505341,-0.253929765,Ni2W3N
mp-555746,-1.877398639,InAg3(PO4)2
mp-780232,-2.54651231,Hf2N2O
mp-505574,-0.052049533,Co2Mo4C
mp-542469,-3.638525921,Gd2Si2O7
mp-505820,-0.572352605,NiPS
mp-21099,-2.244266463,K2Pb(SO4)2
mp-546625,-2.369391061,HoBi2BrO4
mp-6926,-0.850493352,Ca(PPd)2
mp-778338,-2.039592421,Li4V2Co3Sn3O16
mp-775024,-2.007846601,MnNi3(PO4)4
mp-764336,-2.870248634,Li4Mn3OF8
mp-722266,-1.247143841,Na2GeH16Se3O8
mp-972623,-0.589988601,SmHgAu2
mp-540256,-1.813540212,NiPO4
mp-757583,-2.389883605,Li2TiCuO4
mp-770598,-1.662675745,Li2CoH8(CO5)2
mp-975578,-0.330623894,Li2SnHg
mp-557508,-2.421682625,NaLaH2S2O9
mp-865123,-0.716056435,MgGaPd2
mp-30142,-1.469747912,Be4N6O19
mp-861875,-0.208586042,LiHf2Re
mp-16031,0.0001581,Sn3N4
mp-11893,-0.258387816,K2Pd(CN)4
mp-20907,-0.737138397,La2InRh2
mp-3340,-0.463266273,TaAlCo2
mp-763793,-2.992679402,Li2Mn3F8
mp-7205,-2.673265004,LiInSiO4
mp-569759,-0.426131331,Zn5(BRh2)4
mp-705314,-2.544774283,Li3V3P8O29
mp-585516,-3.482783985,Ca3Si2O7
mp-972970,-0.934919557,ScSiRh2
mp-554636,-3.896925268,Gd2B(OF)3
mp-23715,-0.587125362,BaH2
mp-29084,-2.857079868,Ba2GdCl7
mp-627442,-1.626076104,Ge7H18O23
mp-976125,-0.599922129,PrGaAu2
mp-5519,-0.823563482,HoGeAu
mp-16518,-0.532521734,TmAl4Ni
mp-754893,-3.542419556,U4O7
mp-977112,-1.325267238,NaSrO3
mp-761990,-2.196132356,LiNiPO4
mp-769565,-2.438470479,Na2VPCO7
mp-3576,-0.481487515,HfGaCo2
mp-2607,-0.320503287,UGe3
mp-782035,-3.356072289,Al2O3
mp-558026,-1.733677835,SbSe(IF2)3
mp-188,-0.685410402,AlPt3
mp-3954,-1.513708429,PrPS4
mp-780297,-2.489675187,Li3Mn2Fe(BO3)3
mp-14854,-2.914890707,Sr2LiIn(B2O5)2
mp-771389,-2.304308335,Li2V3BiO8
mp-638442,-0.399366689,Gd2Al6Si4Au
mp-768745,-3.204184493,HfP2O7
mp-3736,-0.351825055,ZrAlCu2
mp-763252,-2.07902809,LiSbWO6
mp-21316,-0.810891939,TaSiIr
mp-560300,-1.830360513,Nd3CuSnS7
mp-17256,-3.981908785,Rb2Hf3OF12
mp-765472,-3.412297315,KTi6O12
mp-866073,-0.649073936,MgSnRh2
mp-568711,-0.23378785,VPd3
mp-7906,-1.202376469,Al2HgS4
mp-754344,-1.645901688,LiZnO2
mp-780896,-2.452748228,MnCr(PO4)2
mp-542996,-0.466759406,Ta6Fe16Si7
mp-12324,-1.03092405,CsVP2S7
mp-4627,-0.664716765,CoAsS
mp-776068,-2.402889712,LiVCrO4
mp-669333,-3.389697339,Ba5Si8O21
mp-19428,-2.74594738,K2RbTbV2O8
mp-865076,-0.253867979,NaCd2Pt
mp-972949,-0.312834208,LaSmZn2
mp-557798,-3.35466911,K5Li2NdF10
mp-34185,-2.452439398,Ca(PrS2)2
mp-9899,-0.72892905,BaAgP
mp-667305,-1.952644863,ReN(OF2)3
mp-11266,-0.339105517,BaCd2
mp-557403,-2.871349652,LiFe2F6
mp-17516,-3.29249038,Ca10P6SeO24
mp-28235,-0.837140005,Tl(CuO)2
mp-541381,-0.398176353,Pu(SiAu)2
mp-707470,-1.928310064,Na2H4(SO4)3
mp-756354,-3.732464331,SrSc2O4
mp-552738,-2.304007506,TmBi2IO4
mp-705356,-2.589949484,Li2Fe(PO3)5
mp-643023,-0.417608814,Mg2H4Ru
mp-867222,-0.22797209,LiCa2Ir
mp-19075,-2.584553598,K2SrV4O12
mp-21479,-0.461109071,LaIn5Rh
mp-1018084,-0.135094962,CrAgTe2
mp-770685,-1.827114898,Li4Mn3Ni3(SbO8)2
mp-558350,-1.385780048,Zn2TeBr2O3
mp-557696,-3.324750534,Na5Y4Si4O16F
mp-616900,-0.931964576,Zn(InS2)2
mp-35799,-2.962643791,Hf2Bi2O7
mp-19342,-2.189044879,WO3
mp-865203,-1.440771199,YCuPbS3
mp-998612,-1.07545744,KGeBr3
mp-6501,-3.291003952,BaHo2ZnO5
mp-30214,-2.297049403,SbIF10
mp-568514,-0.90839239,BPBr2NCl3
mp-781009,-2.627811555,Li3Cr(PO4)2
mp-768507,-1.578581952,Cu2(SO4)3
mp-775130,-2.217476015,Li2CrO3
mp-675042,-0.882020325,Mg2TiO
mp-17838,-4.317834281,KTb3F10
mp-2707,-0.257608767,USb2
mp-766340,-1.711041961,Ba2CaI6
mp-5700,-1.806863574,Sr2Cu3O5
mp-972662,-0.054741415,Sm2Fe17C3
mp-723540,-2.135282256,K6BiH3(Cl2F)4
mp-3666,-3.148432481,LiTaO3
mp-19970,-1.790147917,Li3CuO3
mp-983556,-0.20609446,Er2MgTl
mp-22184,-3.409602092,Ba2SmNbO6
mp-645272,-1.882856873,TlV3(SeO6)2
mp-971758,-0.097027761,ZnNi3
mp-607124,-0.518931057,Dy5(In2Ni)2
mp-4395,-0.73212801,TbScGe
mp-30962,-2.200931794,K4Ge9O20
mp-18142,-0.180035094,Ca(Al5Cr)2
mp-8924,-0.594769795,Ba2LiFe2N3
mp-643009,-0.480515413,SrMgH4
mp-695887,-2.341970532,K3Cu2P4HO14
mp-760729,-2.691073811,Ca2Ga2Si(HO4)2
mp-4953,-0.096942497,CdGeAs2
mp-12737,-0.592429175,YB2Rh2C
mp-6182,-1.119867439,CsTb2Cu3Se5
mp-5518,-0.456461961,GaAgSe2
mp-555953,-2.275749352,Na2Cu2Si4H4O13
mp-651847,-2.607903774,GdGaGe2O7
mp-9366,-2.174548161,RbHoS2
mp-12586,-0.173389376,SmCu
mp-21866,-0.816016915,Dy2InAu2
mp-864761,-0.280445151,Ta2MnOs
mp-19766,-0.823855317,CeSnPd
mp-13094,-0.647919776,YAl2Ni
mp-773894,-2.320396886,CaB2(H2O3)2
mp-698063,-2.381631977,Na2P2H2O7
mp-20470,-3.860960447,Gd2O3
mp-997016,-0.406397686,AgClO2
mp-571490,-2.149564302,Pr3CCl5
mp-762236,-3.158638695,Al3CrO6
mp-669,-0.44992682,ThAl2
mp-541430,-1.623825134,BaLaCuSe3
mp-768469,-3.223383156,TmGaO3
mp-28974,-3.708593765,TiF4
mp-639789,-0.014703511,Fe2Re3
mp-978927,0.010172479,SmEr3
mp-769536,-2.35536192,Na5Mn2P2(CO7)2
mp-505364,-1.570759045,CdPH6NO5
mp-973603,-0.656323999,Lu2ZnPd
mp-554212,-0.46532149,Tl2Ni3S2
mp-10430,-0.844173662,Nb5(NiP)4
mp-707985,-2.247903276,K3Na3TeP6(HO4)6
mp-29667,-0.524418486,Si2Ni3
mp-30216,-0.648363424,K2ReI6
mp-862586,-0.056377814,Re3Pd
mp-1019360,-1.42750141,ThPSe
mp-9379,-0.555588128,Sr(SnAs)2
mp-532059,-2.024496269,Er2CdS4
mp-753130,-2.626435331,Li4CuF7
mp-21061,-1.085327497,GdSbPd
mp-2439,-0.319787855,ZrNi5
mp-23129,-1.702472619,Ba2Cu3(BrO2)2
mp-685097,-4.015216218,HfO2
mp-863679,-0.435796646,ErTaRu2
mp-23058,-3.477021713,NdClO
mp-776362,-2.34784331,Zr2N2O
mp-19517,-2.690705675,KVPO5
mp-559571,-3.214022528,ZrB2O5
mp-775252,-2.456326184,Li8Mn3Fe5(BO3)8
mp-20738,-0.384035353,FeSi2
mp-570535,-0.319235634,NiH20(C4N5)2
mp-29331,-2.261518804,KH3F4
mp-5714,-0.526127402,TmCo3B2
mp-562387,-2.520465938,Li6Tb2O7
mp-650124,-1.135572953,K2Rb2Re6S13
mp-781617,-2.497379253,Li5Mn6(BO3)6
mp-774423,-2.389657525,V3Cu(PO4)6
mp-14026,-3.507064996,Ca2Ta2O7
mp-777665,-2.91857557,Li2FeF4
mp-12018,-0.445130895,NdAl4Ge2Au
mp-558475,-1.467480393,K4Nb2S10O
mp-29819,-0.467561332,Ba2Si3Ni
mp-505489,-2.193343826,Sc7BCl12
mp-22331,-0.630054211,NdTiGe
mp-24413,-0.303188675,Na2LiAlH6
mp-11658,-0.280906605,Cu2SnSe3
mp-698317,-1.892615089,NdH4C3O8
mp-7374,-1.62596777,Ba(CuO)2
mp-541331,-2.471419808,Sr2PrGaCu2O7
mp-704577,-2.675278966,Na2Co2(B4O7)3
mp-4755,-0.753510186,Sc3Fe2Si3
mp-17512,-1.711487115,Zn(AuF4)2
mp-675511,-1.971550306,Sm2PbS4
mp-27437,-1.350283892,Zr(IO3)4
mp-568031,-1.048362611,GaHg2SbCl4
mp-978662,-0.862169978,Sc6Al16Ir7
mp-973396,-1.216763979,KBeO3
mp-8230,-2.495576308,Zn(PO3)2
mp-542812,-0.368025957,GaTe
mp-720856,-0.695810992,KCa(H2N)3
mp-962067,-0.172127213,BaNaSn
mp-20526,-0.81477252,PbS
mp-23950,-0.365004207,K(BH)3
mp-643063,-0.823083397,NbSe2
mp-558192,-2.652073958,NaPO3
mp-9186,-1.42568692,CdSeO3
mp-17757,-0.556313699,Sr5Ge3
mp-20888,-0.738809858,TmGeRu
mp-8257,-1.23818122,Na2ZnS2
mp-531778,-2.656348531,Mg17(As3O16)2
mp-38975,-1.460178018,PNO
mp-541141,-1.737638642,K3IrCl6
mp-764872,-2.61955866,Li5Fe7O3F13
mp-134,0,Al
mp-862794,-2.893079777,K2Pu2O5
mp-622195,-2.393861714,CsSO3F
mp-778306,-2.003049002,Na4Fe2C4SO16
mp-568574,-1.144429026,LaGeI
mp-1020057,-3.189064217,LiLaO2
mp-772874,-1.961109038,CaBi2O5
mp-626647,-1.076985102,TlHO
mp-13002,-3.445301736,K2SiF6
mp-559377,-1.668407804,IOF3
mp-766429,-1.191076441,SiH18C2N8(OF3)2
mp-567341,-0.240169439,PrCoC2
mp-4026,-1.261369672,KCrS2
mp-1459,-1.337281866,TaN
mp-865238,-0.236530152,Lu2MgAl
mp-14017,-0.405089618,K3Sb
mp-27111,-2.451848283,Li3Sb3(PO4)4
mp-978269,-0.116717367,MgZn2
mp-975834,-0.060009502,MoRu3
mp-641621,-0.248464262,U4Ga12Co
mp-26745,-2.497407102,LiSbP2O7
mp-759684,-2.400851585,Na3Bi(P2O7)2
mp-554336,-0.783076224,NbAg2(PS4)2
mp-29186,-0.468596549,La(SiP3)2
mp-569149,-1.632778644,K2TeCl6
mp-651582,-0.239737715,Mn(InTe2)2
mp-770481,-3.327526147,Ta9PO25
mp-20975,-0.36965912,CeIn5Ir
mp-761992,-1.905456325,Li2Fe2(CO3)3
mp-771910,-1.929295076,Ti2Mn3Co3O16
mp-776000,-2.798997201,Ti3Mn2Sb(PO4)6
mp-849803,-0.97701628,Li2Ni2S3
mp-291,-0.714424491,TiOs
mp-683616,-2.972685367,Li5Ti7In(PO4)12
mp-28364,-1.361552829,Rb2CdO2
mp-560278,-3.385096121,Er3B5O12
mp-2939,-3.140115461,BaTbO3
mp-11475,-0.47633919,TmHg
mp-780135,-2.480512208,Li2Mn3(BO3)3
mp-554540,-2.32556175,Li5ReO6
mp-29821,-0.404419875,Gd4B3C4
mp-866001,-0.64397505,AlVRu2
mp-7524,-0.696358164,NbPSe
mp-540356,-2.563903068,LiFe(PO3)4
mp-19046,-1.480878968,KMnO4
mp-504669,-2.543215323,KBiF6
mp-5214,-2.016909708,TiTe3O8
mp-867533,-2.483829216,LiSn3Sb(PO4)6
mp-780856,-1.562099765,Co6O7F5
mp-709885,-2.150120839,Rb4LiH3(SO4)4
mp-19022,-1.69359695,Na4FeO4
mp-744751,-1.744357984,NaMn6Al3H42(SO19)2
mp-31031,-3.382811438,La4PdO7
mp-4425,-0.639051291,Ta2Pt3Se8
mp-768876,-1.785206034,Na2Bi2C4SO16
mp-7191,-0.800131563,Sr3GaN3
mp-555079,-1.140114258,ZnS
mp-569776,-0.359876118,TaNi3
mp-776405,-1.159100623,Li6Sb2S7
mp-23209,-2.883547026,SrCl2
mp-17747,-1.802743035,Y3CuSnS7
mp-22683,-0.468392045,CeCuSn
mp-20447,-0.315227904,U3Co2Ge7
mp-640341,-1.210075325,Mo3S7Cl4
mp-9596,-0.570234073,La(BIr)4
mp-11668,-0.404177746,Sm2(Zn2Ge)3
mp-22643,-0.720338727,Tb3(CoGe2)2
mp-560976,-2.533371837,KNiF3
mp-776644,-2.435024393,Ti3Mn3(SnO8)2
mp-978917,0.93917895,Sn3B
mp-3264,-0.70905269,Th(NiGe)2
mp-3078,-0.127714971,CdSiAs2
mp-568668,-0.527455859,DyFe2SiC
mp-556091,-1.342083549,Cs3Ta2S11
mp-7390,-0.496693073,SrGe2
mp-672338,-0.362617779,Cs(Bi2Te3)2
mp-697749,-2.661552041,LiV2(PO4)3
mp-14206,-0.368484523,K3Ag3As2
mp-17400,-1.264362683,Ba2TaN3
mp-976378,-0.767007138,La3Sn4
mp-13967,-0.492730549,Nb5(CuSi)4
mp-973930,-2.967423187,NpBeO3
mp-777700,-2.862136274,LiFeF4
mp-765857,-2.899849145,LiCr(SiO3)2
mp-758310,-2.878533734,Li3Ti2(PO4)3
mp-667363,-3.129757323,AlPO4
mp-10931,-3.374311487,HoSF
mp-556647,-2.810477363,Ba5Re3ClO15
mp-30251,-2.589072511,YAuO2
mp-35787,-2.450352697,Ca(DyS2)2
mp-30440,-0.06063744,Be22Mo
mp-769171,-2.497059218,SiGeO3
mp-973895,0.48727291,Ni3H
mp-1016873,-3.68850339,CaHfO3
mp-644492,-3.602630586,LuNbO4
mp-570170,-0.49662173,Mo15Se19
mp-982662,-3.363212144,Eu2MgSi2O7
mp-23713,-0.657751655,CaH2
mp-2159,-1.276142525,DyTe
mp-10733,-3.843961314,Sm2O3
mp-568820,0.000947938,Pu2Co17
mp-699445,-2.380152219,K2P2H2O7
mp-504570,-1.727046155,K3FeO3
mp-560937,-2.870460512,Na3Si3SnO9F
mp-20584,-1.840079572,RbEuS2
mp-613620,-1.093549974,Rh2O3
mp-3872,-1.572991354,Mg(AlS2)2
mp-570988,-1.855076485,La2PBr2
mp-510369,-1.027976969,Ce5Pb3O
mp-989624,-1.035021592,TiPN3
mp-570817,-0.13570762,Cu2P8Se3I2
mp-571544,-0.762960939,KTiPSe5
mp-7302,-0.285035643,CrP4
mp-778681,-2.331574705,V3SnO8
mp-27172,-1.926839561,Cs3In2Cl9
mp-771957,-3.025496639,Ta2PbO6
mp-27271,-1.675844082,Tl8Ge5O14
mp-778241,-2.97104505,Li2V3F8
mp-977389,-2.343826059,CeCuO3
mp-757431,-2.480441989,LiSn(PO3)4
mp-555741,-1.808327208,RbAu(SO4)2
mp-3054,-2.263708671,Li2CO3
mp-864972,-0.670275043,Mg2PdAu
mp-625359,-2.945056782,NdHO2
mp-849709,-2.3931986,Li4Ti3V2Cu3O16
mp-5308,-3.539166416,LaTa3O9
mp-28040,-0.295250621,Hf(BH4)4
mp-29044,-0.345599996,Cd4Sb2I3
mp-697331,-0.326162829,Mg2NiH4
mp-1019549,-3.318266305,BaMg2Si2O7
mp-770961,-2.53326515,Li2TiMn2O5
mp-782642,-2.442893709,LiMn2(BO3)2
mp-755634,-2.952070279,Y2HgO4
mp-722330,-1.531189497,Li3La2H6(N3O10)3
mp-761971,-3.114859107,LiLaNb4O12
mp-772228,-2.481394667,CdP4O11
mp-556454,-3.281054415,SiO2
mp-531590,-3.440539048,SrAl22O34
mp-8570,-2.247289175,Ba3Zr2S7
mp-15709,-0.538517341,LuCo3B2
mp-8884,-0.46180251,ZnTe
mp-8966,-0.727442258,K2Sn2Se5
mp-560209,-2.889365633,Li9Al3P8O29
mp-699464,-3.123444845,Ca3Be2Si3(HO6)2
mp-23188,0.025225331,In2Bi
mp-14023,-3.602988909,Na3Li3Sc2F12
mp-608461,-2.986943797,PaCl2O
mp-767408,-2.08353533,Na2PRuCO7
mp-10175,-2.706983338,KCdF3
mp-4917,-2.859792552,LaAsO4
mp-567224,-0.114250096,Mg(SiB6)2
mp-772099,-1.099071517,Cd(CuO2)2
mp-771267,-1.8739849,LiZnFe7O12
mp-754902,-1.970865899,LiSbCSO7
mp-632,-0.257595623,TmCo2
mp-16755,-1.544189744,Mg(AlS2)2
mp-9794,-0.864583671,Rb2GeSe3
mp-19975,-3.086674514,Sr2PrO4
mp-982730,-0.642674001,Ho2ZnIr
mp-770151,-2.530751581,Li2VBO4
mp-780147,-2.583601875,LiMnSiO4
mp-540204,-2.293622107,Co2P3O10
mp-771774,-2.383287803,Na2SiSnCO7
mp-982045,-0.4836496,YbB4Ru
mp-9107,-1.523381037,NaZrCuS3
mp-867282,-0.84533756,Tb2IrRh
mp-6567,-2.876549805,LiNd(PO3)4
mp-32334,-1.933715049,NiP2O7
mp-11497,-0.069065524,TbMg2
mp-9934,-0.384626655,BaMgSi
mp-17887,-2.509456991,SnP2O7
mp-560266,-2.562359226,Na3B5SO8
mp-558193,-1.593124211,K2Cu3(AsO3)4
mp-550820,-2.028019136,SmZnPO
mp-862951,-0.612882639,PmPbAu2
mp-11604,-1.979689991,KSm2CuS4
mp-504970,-0.37323574,UH3
mp-771386,-2.466522727,VBO4
mp-867925,-0.520235437,SrAcHg2
mp-770404,-2.714026793,Li4V2Si(PO6)2
mp-18462,-0.488566318,TbGa3Os
mp-996985,-0.790428157,HAuO2
mp-764201,-2.886140307,Li2V3O3F5
mp-779260,-3.377781318,Gd3SbO7
mp-556247,-2.327895875,Dy3S3N
mp-30590,-0.134526935,LaCu6
mp-37014,-4.17056509,GdPaO4
mp-676382,-3.290076729,Yb2Zr2O7
mp-776003,-2.512599802,Mn2V3Cu(PO4)6
mp-18720,-1.877771953,Mn2CdO4
mp-13583,-0.889919518,Sc2Si2Ru
mp-2283,-0.28200678,ZrCo
mp-972405,0.110291013,U3Cl
mp-19944,-1.607577996,Sr3PbO
mp-20137,-0.798890738,Dy(GePt)2
mp-766217,-2.357458281,Sr4Cu2O7
mp-696132,-0.331083014,Zr5ZnPb3
mp-23465,-1.707633786,Cs2TeCl6
mp-781707,-3.807823798,La4Al2O9
mp-721299,-1.283347866,H13S2N3O8
mp-642803,-0.956664189,Zr2HBr2
mp-861653,-0.526419164,ThH3
mp-866830,-1.677805831,Ca3SnS5
mp-772080,-1.580922696,BaLaI5
mp-8,0.000128108,Re
mp-6653,-3.493287815,Ba2ErNbO6
mp-30349,-0.272272419,Li2AgPb
mp-865141,-0.36317754,Lu4Ni13C4
mp-989625,-0.870915279,SrWN3
mp-17972,-2.056382668,Zn2Hg2OF6
mp-755463,-1.205849917,Li3SbS3
mp-17971,-2.269083261,Rb2Li14Pr3O14
mp-9781,-1.220584659,K3SbS4
mp-568182,-0.730998516,Ce(CoAs)2
mp-18656,-3.095983888,GdGaO3
mp-32791,-0.192303301,Ag2S
mp-27513,-2.048710092,Sc7Cl10
mp-12063,-0.378553669,Ce(AgGe)2
mp-19312,-3.072118853,BaTb2NiO5
mp-11514,-0.694595527,NbPt2
mp-864619,-0.450140786,YbMgSi
mp-779147,-3.172758112,Ho2P4O13
mp-971919,0.127182107,ZnSn3
mp-755070,-3.182106206,CeSmO2
mp-649334,-0.989133651,FeSCl7
mp-2000,-0.086352451,CuSe2
mp-752474,-3.005259725,NbOF2
mp-37692,-1.955393643,Li3RuO4
mp-4524,-0.207922837,ZnGeP2
mp-977386,-0.09563961,LiLu2Tc
mp-777553,-2.844835936,LiFeF4
mp-740740,-1.662802192,Na2ZnP(H5O4)3
mp-754636,-2.816387438,ErBiO3
mp-505312,-2.214079267,Sr2FeCuSO3
mp-21068,-0.427549664,CaIn2
mp-768042,-2.297994402,Na2FePCO7
mp-35751,0.051080553,Zn(CN)2
mp-6779,-2.022544025,Ba2Pr(CuO2)4
mp-758925,-1.838240986,Na6Zn3As4H6O19
mp-9897,-0.00778002,Te3As2
mp-557346,-1.139694775,ZnS
mp-758269,-2.424862895,Ba8In6O17
mp-705001,-2.638727825,LiCrP2O7
mp-30714,-0.208904014,Tm2Zn17
mp-6233,-2.556783985,NaSr3RuO6
mp-19521,-2.483180205,Al2(MoO4)3
mp-542734,-1.090862888,Rh2O3
mp-772672,-3.116558847,Sm2V2O7
mp-16532,-2.05752044,BaCe2FeS5
mp-2211,-0.433207954,V3Pt
mp-980196,0.132634902,YbTm3
mp-20901,-0.230891452,NiSe2
mp-542103,-0.505315018,TbRh3C
mp-756648,-3.142685716,LiNdO2
mp-849081,-1.097400052,Cr2S3
mp-18648,-0.739026833,Zr2Ni12P7
mp-18010,-0.626929425,Ta2Pd3Se8
mp-772036,-3.44142608,YTa7O19
mp-561235,-2.174569142,AsCSF11
mp-6741,-2.941399364,NaLa(PO3)4
mp-975641,-0.104271945,Pr3Cd
mp-775842,-1.703025695,Bi24B2O39
mp-567747,-0.017009762,Co7Mo6
mp-36539,-0.677868478,KBiSe2
mp-569273,-0.206263212,Mg44Ir7
mp-768570,-1.605827039,Sr2CaI6
mp-780853,-2.339764555,LiFe3P3(HO6)2
mp-978089,-0.631404138,Pr2IrAu
mp-686588,-3.080850085,RbNa10Al11Si13O48
mp-3142,-1.624439263,Ca(NO3)2
mp-865972,-1.111668319,KTm2Cu3Se5
mp-777449,-2.354117883,Li4V5SnO12
mp-1013585,-0.631760161,Sr3BiSb
mp-976971,0.003661131,NaPd3
mp-866311,-1.577374322,Bi3BrO4
mp-753802,-3.748356908,Sc2Ti2O7
mp-849461,-1.742687197,Na3MnO3
mp-27840,-0.496140883,Cr3Se4
mp-2370,-0.260754831,PrNi5
mp-635020,-1.654256548,Cs6Bi4O9
mp-5558,-2.290097755,NaReO4
mp-11435,-0.530121844,Er(TiGa2)2
mp-774100,-4.026995919,Dy29Y3O48
mp-23723,-2.358614113,K2CaH2S2O9
mp-19358,-2.643220609,SmMn2O5
mp-31249,-2.324003094,La2Te4O11
mp-781012,-1.648026711,Na4Fe6O13
mp-771112,-1.92302535,Li2Mn3NiO8
mp-697078,-2.60174066,Cs2SiP4(HO7)2