id,formation_energy_per_atom,pretty_formula
mp-20342,-2.480987267,Yb2Sn2O7
mp-554950,-0.375554642,Hg3SbAsS3
mp-770490,-2.167602073,LiCr2(SO4)3
mp-570066,-2.186386269,KZr6CCl15
mp-12593,-0.596496964,ScIr3
mp-604486,-0.494604803,LiB3H18N5
mp-972416,0.001785589,Tm3Lu
mp-30146,-3.135647209,CaSn2F6
mp-570400,-0.230958287,Ba7Al10
mp-556183,-3.51140127,Pr3U(ClO2)3
mp-22529,-0.650716065,SrInAu
mp-17017,-0.414230208,Al12Co4Cu
mp-4828,-0.491870334,HfNi2Sn
mp-669328,-0.281519158,ReTe3Br5
mp-775220,-2.178078078,V(GeO3)2
mp-29223,-3.388560792,Ba3Si5O13
mp-1018060,-0.12887789,GaCo2Ni
mp-864876,-0.744345258,TbInRh2
mp-12240,-3.349449903,Na2LiBe2F7
mp-569854,-1.212202234,Ga3Bi5Cl12
mp-755253,-2.969970783,LiZrO2
mp-540111,-2.431454801,FePO4
mp-17695,-0.683176084,Sc5Sn3
mp-31086,-0.172162805,NaP5
mp-765573,-3.168578107,Li4Zr3O8
mp-988945,-0.339264677,AlAs
mp-981545,0.081273281,Ho3Zr
mp-2482,0.023511013,CaC2
mp-779217,-3.864020297,Tb2Zr2O7
mp-995226,-0.698682235,H2CO
mp-772186,-1.112617627,Tm(ClO4)3
mp-999141,-0.881293958,TbAu
mp-18700,-2.337691778,K4SiO4
mp-20743,-0.80335494,LaInPd2
mp-862727,-0.411138353,Pm2ZnPb
mp-775988,-2.582328307,Mn2NbFe3(PO4)6
mp-720789,-1.577134515,UH12(NO7)2
mp-1017515,-0.069904261,Mn2CoAs
mp-15885,-1.724897666,Li2US3
mp-755988,-1.868527218,Hf3N4
mp-28056,-0.677328403,P2Rh3
mp-554294,-2.39435998,Na7SnS3(O4F)3
mp-510028,-0.659471908,Nd2Fe12P7
mp-626260,-1.440956931,Sr(H8O5)2
mp-775212,-2.637553253,MnV2(PO4)3
mp-567736,-0.664022822,TaPbSe2
mp-13964,-0.66760141,HfGeTe
mp-23471,-1.590189358,K2RuCl6
mp-21224,-0.663299057,Sm(GeRu)2
mp-16336,-0.532474302,Zr2Fe3Si
mp-568056,-0.476162453,LaCo9Si4
mp-706287,-1.958981075,KCuPH2O5
mp-561299,-0.797621924,As2Pb4S6ICl
mp-972534,0.016208082,SmDy3
mp-771170,-1.867010539,Li3Zn2Fe19O32
mp-773663,-2.995987019,Na2Ti2O5
mp-730154,-1.682545872,NaAs3H2O9
mp-990,-0.875546072,HoAu2
mp-973493,0.181145933,LiLu3
mp-4155,-3.272211498,Ca2Nb2O7
mp-851112,-2.136221986,Ba9La5Br33
mp-30660,-0.251613228,Ga5Pd
mp-2149,-0.237941896,NpIr2
mp-30853,-0.110680289,Tl2Pt3
mp-849311,-2.69150383,MgSb2H2F14
mp-6760,-3.408495557,Na3La9B8O27
mp-561086,-3.448578593,CaSiO3
mp-690687,-1.050033941,Ag2H2IOF
mp-865717,-0.74930781,Ti2ReIr
mp-21521,-1.557711882,Cs2PbO3
mp-13971,-3.298370304,Nd2SeO2
mp-771951,-2.096287168,Ba3La2Br12
mp-768910,-1.735592612,Bi2B2O7
mp-505767,-0.462025392,K2NaInSb2
mp-672272,-0.812081045,Sm2Pd2Pb
mp-28340,-1.022033453,CaAsPt
mp-27942,-1.434871696,Pb2ClO2
mp-1004756,-0.205510736,NdB12
mp-8483,-2.203590189,K2SO3
mp-557618,-2.399923077,Rb4CuSi2O7
mp-758533,-2.521812237,Li3Sb(PO4)2
mp-777780,-3.022805498,Li3MnF6
mp-570007,-0.199235179,SmOs2
mp-756406,-3.234527865,Li2Zr2O5
mp-772891,-2.030383393,BaLaBr5
mp-28758,-1.894611381,KPd2F5
mp-1013709,0.288094705,Ba3AsN
mp-3614,-3.098958173,KTaO3
mp-19138,-1.74479052,BaNiO3
mp-765400,-2.105636854,Li3Cr(CO3)3
mp-554774,-2.691938076,RbLu(SO4)2
mp-769345,-3.349542204,Ho3ReO8
mp-631334,0.567601608,LiTc2Pd
mp-9816,-2.709527098,GeF4
mp-22975,-1.660016186,Rb2TeCl6
mp-554421,-0.749970923,KCu2AsS3
mp-19436,-2.923086394,La7Mo7O30
mp-1082,-0.479149395,VIr3
mp-23390,-1.810187474,RbCdCl3
mp-1020123,-3.23545272,MgSiO3
mp-675564,-4.284872067,La2Th8O19
mp-867601,-2.461103736,Li7Cu(SiO4)2
mp-504425,-0.413675237,Nb3As
mp-540688,-2.376988116,SrIn2O4
mp-8378,-0.629272467,Tl3SbS4
mp-756334,-2.254136415,K2Sr2O3
mp-28497,-1.908659668,Cs2CrCl4
mp-975882,0.012880523,Li3Cu
mp-634117,-0.144370835,BH3
mp-621945,-3.056388748,La2Ge2O7
mp-21703,-2.587210579,Na3TiP3NO9
mp-20746,-0.56078024,YbIn2Au
mp-15556,-0.405044884,Rb2As3
mp-697821,-1.797655201,Sm6Fe6As6O5F
mp-22550,-3.099713034,BaDy2CuO5
mp-11304,-0.245024099,Li2CdPb
mp-865486,-0.221189559,VZnRu2
mp-764798,-2.379422056,Li5Fe8(BO3)8
mp-761656,-2.535222493,Li4Co(PO4)2
mp-756106,-3.580079759,TbCeO4
mp-570262,-2.079786339,Cs3ZnCl5
mp-554272,-0.473754468,Cu3SbS3
mp-29844,-2.160473526,Tb(AlCl4)3
mp-1019732,-3.431566278,EuAl2O4
mp-12931,-3.725028207,SmTaO4
mp-559965,-2.778788871,Sr5As3ClO12
mp-555599,-0.529366026,CuS
mp-1019377,-2.864002984,Al(PO3)3
mp-560386,-0.753768612,In2Ag2GeS6
mp-1008688,0.271680244,Ti2Sn
mp-1016848,-1.896873807,SrIrO3
mp-866613,-2.904433916,CsNa2Be6(BO3)5
mp-22866,-0.82777392,HoBi
mp-10442,-0.378393234,Eu(Cu2As)2
mp-631425,0.637863522,FeTc2Cl
mp-704536,-2.619931091,Be3Fe4Si3SeO12
mp-14853,-3.619014339,Ba3Er4O9
mp-14760,-3.001213005,LuAl3(PbO4)2
mp-571369,-0.401445005,Y(BH4)3
mp-559224,-3.315129455,Sr3Al2Cl2O5
mp-21160,-2.636930509,Er2Cu2O5
mp-754469,-3.195360748,Er2TeO2
mp-19215,-2.45922479,CaCrO4
mp-1393,-0.069044164,Sn4Au
mp-772198,-1.639998947,Be(Bi3O5)4
mp-867286,-1.62006358,TbBS3
mp-643954,-2.071060721,KCoPH2O5
mp-631277,1.45316624,SrCrW2
mp-752580,-1.354551888,RbNO2
mp-3237,-2.505448716,Na2CuF4
mp-11523,-0.134387606,Ni3Sn
mp-526,-0.240982774,CaTl3
mp-24822,-0.243461627,Na5Al3H14
mp-569147,-0.800249126,UP2
mp-570205,-1.633165375,PrSe2
mp-557438,-3.141735472,Sm2Ti3(BiO6)2
mp-754047,-1.753660815,Rb3SbO3
mp-764783,-2.97659928,LiMnF3
mp-13459,-0.32674493,NaCdSb
mp-631314,1.150986167,KTaPt
mp-675010,-1.360367086,CsHgCl3
mp-21168,-0.52433907,EuGa2
mp-568040,-0.379166596,La2AlNi9
mp-554573,-3.287871119,SiO2
mp-850220,-2.976342125,Si6BiO14
mp-989525,-2.770459249,Cs2RbPbF6
mp-21816,-0.804126057,Ho5(Ge5Rh2)2
mp-783908,-1.883235098,Li4Cr3Cu3(SbO8)2
mp-867308,-0.384326173,InCuPd2
mp-14208,-0.613606278,LiYSi
mp-33533,-1.244285665,La2UTe4
mp-975291,-0.709435111,RbLiO3
mp-669381,-2.125302581,Pb2OF2
mp-9580,-0.564701642,TlGaSe2
mp-865782,-1.781414321,Yb3SiO
mp-11387,-0.382784113,HfGa3
mp-555203,-3.240207403,Sr5B3ClO9
mp-1006368,-1.348760136,Ce2SnSe4
mp-1008965,0.980076161,CdN
mp-645662,-0.299946348,Ba14Na14LiN6
mp-638685,-1.978311102,CsEuBr3
mp-21643,-0.663458801,UMn5P3
mp-675991,-1.438999581,Cd3(BiO2)10
mp-23304,-0.261452814,Rb3Bi
mp-977369,-0.450962719,HoMgHg2
mp-540806,-2.431816007,Ca2IrO4
mp-29639,-0.295798794,Te7Pd20
mp-973786,0.657359951,H3Pb
mp-849732,-1.584129851,LiSb(TeO4)3
mp-1016903,-1.584966183,CdGeO3
mp-570544,-1.296710893,Zr(SeCl6)2
mp-555305,-3.171840641,NaNb(OF)2
mp-1016938,-1.493067347,VHgO3
mp-11469,-0.473586807,PrHg
mp-764163,-1.841276294,Li3FeO4
mp-556040,-2.20287562,CaS2(ClO3)2
mp-557626,-3.846513921,Gd2TiO5
mp-996998,-0.805360064,HAuO2
mp-653891,-0.34198063,NbTe2(SeI3)2
mp-17944,-3.851259902,NaCaAlF6
mp-17538,-0.963098724,K3SbSe3
mp-720082,-1.379843656,KCd6H4C12ClO26
mp-772705,-2.232432365,Li5Nb2Fe5O12
mp-5798,-0.547742802,Al6C3N2
mp-754751,-2.602040901,Li3Nb3TeO12
mp-13427,-0.446961251,Sr3Hg2
mp-625403,-2.288409475,Nd(HO)3
mp-24113,-1.680973882,SnH8(NF3)2
mp-555078,-2.743495236,Ba3SrSb2O9
mp-30570,-0.02707323,CrGaFe2
mp-8414,-3.717017576,K2HfF6
mp-554225,-2.924492947,CsFeF4
mp-31125,-0.546626813,Zr2Cr4Si5
mp-24445,-1.957716192,Nd2H16S3O20
mp-23235,-2.1588171,UCl4
mp-2658,-0.32476143,AlFe
mp-676650,-1.101831246,Li6Br3N
mp-30366,-0.486895442,Ca3Au
mp-775319,-1.840511195,Li2Mn3NiO8
mp-776212,-2.547127204,Hf2N2O
mp-551101,-2.297522874,HoBi2IO4
mp-770885,-2.02818323,Li3FeO3
mp-646895,-3.276860808,SiO2
mp-504678,-1.266588202,CoSeO4
mp-560742,-2.874658416,Ba2TeP2O9
mp-20626,-0.689211351,DyTiGe
mp-740696,-1.131692144,TeH18(Br3O4)2
mp-9745,-2.461551263,Ba3NaRuO6
mp-776628,-2.552786475,Li4TiV5O12
mp-504821,-0.593473568,TlFeBr3
mp-776734,-2.438652407,LiFeF5
mp-697593,-0.724441389,Te7WCl5O
mp-780940,-2.425601599,Li8MnFe7(BO3)8
mp-735596,-1.738397268,K4Mo3H4O17
mp-689973,-2.437239268,Li2Fe(PO4)2
mp-1019527,-3.3117265,Ba3Y2(B2O5)3
mp-766521,-1.110420599,Li10Cu4S9
mp-867762,-0.781464307,DyMgAu2
mp-706654,-0.423971387,HS3N
mp-561418,-1.553735561,Zr3O
mp-70,0.05236155,Rb
mp-8937,-0.374808767,CrSi2
mp-548598,-2.532274839,U(BiO3)2
mp-1533,-0.208724711,Nd3Tl
mp-756336,-3.101740566,CaEu2O3
mp-16194,-2.638832532,Rb2SiO3
mp-11152,-0.490394903,SiSbPt
mp-978520,-0.242399468,SmDyRu2
mp-756632,-3.142582977,NbO2F
mp-15205,-0.794653435,Dy2Si5Ni3
mp-973904,-0.107271447,HfCr2
mp-28863,-1.210092102,Y6OsI10
mp-752602,-0.775024742,BiBr3
mp-774360,-2.542076555,Mn2V3Ni(PO4)6
mp-757574,-2.394577661,Ba8In8O19
mp-15573,-1.445525042,Tl3AsO4
mp-30743,-0.828684825,TmIr2
mp-780415,-2.617714876,NaEuO2
mp-10752,0.027980845,Er
mp-28164,-1.511167089,Ba4P2O
mp-27573,-2.771921555,NaSb3F10
mp-675425,-2.180080162,Ho14(PbS8)3
mp-7342,-0.493333351,Sm3Ir
mp-17493,-2.616172033,Be3Cd4Si3SO12
mp-722516,-2.157347803,Zn2PHO5
mp-18664,-1.369739817,K4Ta2S11
mp-707530,-2.577239539,Na3AlP2H2O9
mp-23187,-0.917343349,La4Bi3
mp-8573,-3.81132089,BaTbF6
mp-6434,-3.199022604,RbAlSiO4
mp-707170,-1.492813145,CuH6SO7
mp-26741,-1.969480977,LiCu4(PO4)3
mp-777483,-0.764587948,Ge2N2O
mp-555966,-3.532480488,BaTi2O5
mp-27207,-2.250941137,K2MgCl4
mp-9656,-3.052742393,BaY2PdO5
mp-865560,-0.402171104,Y2AlZn
mp-676314,-3.756817642,Dy10Ti6O27
mp-560745,-0.798139984,AuN5O14
mp-85,0.030295647,In
mp-19177,-1.975118373,CrO2
mp-226,-0.941146519,FeS2
mp-707772,-1.501231306,TeP2H16N2O13
mp-26303,-2.132853256,Li6Cu9(PO4)8
mp-973053,-0.538295778,ScH3
mp-775999,-2.799257805,Li4Ti3Nb2Fe3O16
mp-975382,-1.494914572,RbCaO3
mp-7936,-1.636284761,LiNbS2
mp-974337,-1.324016845,RuPbO3
mp-676324,-0.717250283,Li11TiP5
mp-556597,-0.862423361,In3S4
mp-675546,-0.177062796,Cr4Cu3Te8
mp-865865,-2.519150294,Yb(ErS2)2
mp-729903,-1.736038936,ZnInH14O7F5
mp-753711,-3.271183939,Ca3(PO4)2
mp-769176,-2.00035902,K5YO4
mp-554219,-2.157879211,U(TeO3)3
mp-1008274,-0.040319043,Co3W
mp-1014251,-1.17919909,HfZnN2
mp-645717,-1.470489546,Co3TeO6
mp-541,-0.098684262,Ta3Sb
mp-13472,-1.073796457,HfSiRh
mp-775462,-1.483664939,LiFeCuO4
mp-999206,-0.32941613,ScAl
mp-570321,-0.416616772,InSb2Se4Br
mp-530879,-3.071265369,Ba4Ti4O9
mp-744188,-1.955415674,K3Mo4H6O16F
mp-555764,-2.888559771,BaNb10SiO19
mp-3292,-0.822741468,Tb(CoSi)2
mp-17910,-0.40521792,Nb5Ge3
mp-865601,-0.7724032,Lu2RuRh
mp-753326,-1.771249138,LiAg2F6
mp-761526,-1.251053754,FeCoO4
mp-5615,-0.794627467,CaAgAs
mp-974827,0.443572497,KPr3
mp-505330,-0.63235148,Tm2Mn3Si5
mp-28583,-1.623208692,Si2NCl5
mp-770767,-2.426554408,SmCuO3
mp-29992,-2.581220477,AsPbF7
mp-11385,-0.045488125,YFe5
mp-37480,-0.633159113,LiSbSe2
mp-554799,-3.022087476,VF4
mp-943469,-2.136943747,LiMnHSO5
mp-21477,-0.108223069,RbIn4
mp-5683,-0.389602839,U(MnSi)2
mp-559539,-3.242839424,Li2U3P2O15
mp-774230,-3.015491439,Li4Ti5V3O16
mp-11028,-0.211203192,K3Hg11
mp-1008282,0.12089432,Cr3Fe
mp-771132,-2.701162409,Ba3Ga4O9
mp-764801,-2.079980671,Li2Cu5F12
mp-15777,-0.380779834,Zn(GaTe2)2
mp-631383,0.709428627,MnCrRe
mp-978569,-0.567104323,Sm(BRh)4
mp-18414,-3.509184835,BaLa2BeO5
mp-555574,-3.987875595,Dy2O3
mp-866229,-0.662807374,Ca2SnHg
mp-679,-4.077677278,Er2O3
mp-11382,0.036041885,NdFe5
mp-11610,-0.18949909,PrCo4B
mp-2006,-0.490106444,V3Ir
mp-884,-0.598834217,NdSi2
mp-770679,-2.770963184,Li5CrP2(O4F)2
mp-505435,-1.931878284,Gd2Br3N
mp-974455,-0.066842988,Re3Ru
mp-2457,-3.966689453,Tb2O3
mp-696075,-2.445140831,Ca2H2S2O9
mp-643409,-2.39500407,Ba4Y(CuO3)3
mp-763819,-2.822618609,Li4Mn7(OF7)2
mp-780493,-2.145085287,Li8CrO6
mp-675152,-2.898939677,NdPb8F19
mp-675076,-3.741310062,Sr5U5O18
mp-975933,-0.463698782,NdHoIn2
mp-687234,-2.426378204,P2WO8
mp-29787,-2.324708788,Ba5Pt2O9
mp-676801,-4.113731439,K7Th6F31
mp-684059,-2.679469631,LiTi(PO3)5
mp-640950,-0.310036332,NaB9Se8
mp-11846,-0.437444557,Pr(AlZn)2
mp-865050,-0.882989395,HfMgRh2
mp-3734,-0.821368231,NdSi2Ni
mp-756878,-2.38187651,NaYbO2
mp-624214,-0.971398664,Cs3Bi2I9
mp-653287,-2.846062909,Cr3Pb5F19
mp-774172,-2.765574561,Mn3OF5
mp-865354,-0.980981782,Tm2IrPd
mp-26513,-2.202595998,LiCuPO4
mp-758223,-1.700136501,Bi11PO20
mp-559435,-2.154738666,CoF3
mp-23341,-1.348609409,Bi2Pt2O7
mp-568516,-0.341996032,K3Bi
mp-7688,-2.135938704,Li2CdGeO4
mp-570015,-0.565435218,Ho4InRh
mp-4596,-2.495141388,Sr2RuO4
mp-24157,-1.43130291,PH8N2O3F
mp-768147,-1.10141522,Dy(ClO4)3
mp-29147,-1.281807885,MoCl5
mp-961706,-0.949950237,TiSiPt
mp-560614,-2.410544085,KLiSO4
mp-27694,-0.951319744,H3ClO5
mp-705011,-2.413554913,LiFeP2O7
mp-773141,-2.828073873,BaLaCl5
mp-570080,-0.633731684,Li2TeSe3
mp-11054,-0.261629928,RbSn
mp-981380,0.138284199,Tl3Zn
mp-545512,-3.259801887,CaO
mp-20568,-0.652219648,LaAgGe
mp-8208,-1.396458939,Mg(PtO2)3
mp-504871,-2.361932089,SrV2CuO7
mp-768921,-2.41526536,Li8B2O7
mp-685370,-3.741836106,Y2Ti2O7
mp-778873,-3.505232473,BaCe2O4
mp-16995,-1.517032907,Sm3Si6N11
mp-11486,-0.562837114,Y2(Al3Co)3
mp-17598,-1.302165485,Cu2Te3O8
mp-1902,-0.189536335,MnPd
mp-8945,-3.573192824,YSnF7
mp-861950,-0.917252553,Ca2SbAu
mp-556918,-2.951758341,NbPO5
mp-752442,-3.774094244,BaLu2O4
mp-13109,-3.832577484,SrHfO3
mp-13683,-0.474091182,HfGe2
mp-572526,-1.872389105,SbBr(OF3)2
mp-765139,-2.61313455,VCrP2(O4F)2
mp-6453,-3.190713775,K3Nd(Si2O5)3
mp-8123,-0.663855687,TmCuSi
mp-31458,-0.456081512,TiSbRu
mp-605034,-2.35211482,K2NiF6
mp-690725,-1.574511691,TlCuHSO5
mp-975642,0.161073731,Pr3Cu
mp-989695,0.003768165,Cu
mp-686056,-0.455935433,Fe(Mo3Se4)2
mp-758814,-2.401417208,CaAs2H6F18
mp-770389,-2.221350338,V2(SO4)3
mp-13172,-0.232884813,YMgCu4
mp-2824,-0.831010508,AlPd2
mp-542143,-2.339019308,RbZn4(BO3)3
mp-753653,-2.650690562,LiTi2P4H3O16
mp-729,-0.349910662,Cr3Si
mp-755495,-1.629528444,Li5Cu3(TeO5)2
mp-680432,-3.333939671,Sr10Al6O19
mp-770387,-2.522282011,LiMnAlO4
mp-778604,-1.878239786,Li3BiO3
mp-767328,-2.650901437,Li5Fe5Si7O24
mp-29359,-1.578337061,Na2PdCl4
mp-605650,-0.474527854,Ba5Ga5Pb
mp-557756,-2.673686581,Li4Zn(PO4)2
mp-17045,-0.929356737,Hf3Rh5
mp-14506,-0.43319946,Al7Te10
mp-631373,1.118230304,TiVW
mp-744002,-0.841361732,CoH16C3N8O7
mp-23484,-1.399966828,CsAuCl3
mp-32069,-2.325162294,UMo5O16
mp-696078,-2.81322019,K3ZrH2S(OF)5
mp-7646,-2.199074371,Cs2PrO3
mp-775861,-2.349779807,Zr2N2O
mp-745150,-1.969786025,VZnHPbO5
mp-614777,-1.703672878,NiF3
mp-11794,-2.260499517,AlAgO2
mp-2364,-4.059300663,PaO2
mp-19710,-2.446307197,Tb3Fe5O12
mp-23241,-0.887368107,YBi
mp-574379,-0.25488478,CsHg2
mp-559407,-2.39178932,NaGdH2S2O9
mp-626263,-1.497617364,Ba(H8O5)2
mp-35388,-1.662592795,LiSmSe2
mp-698018,-2.727755071,LiAlSi2H2O7
mp-761136,-3.360780058,NaTi8O16
mp-4829,-3.860769806,Na2ThF6
mp-754302,-3.888863259,Dy2Zr2O7
mp-1009217,0.1347898,MnSb
mp-775520,-2.016648067,Li4Cr3Co2Sn3O16
mp-983235,0.00847616,Tl3Pb
mp-777195,-2.353286948,LiFe7(O3F5)2
mp-29375,-1.259992793,Na3InS3
mp-983589,-1.220920118,Ag2GeO3
mp-16045,-0.636776515,Sr(As2Rh3)2
mp-4322,-0.470490766,Pr(CoB)2
mp-7853,-1.694705896,NaTl3(SO3)2
mp-775936,-2.131465162,Na3LiCuPCO7
mp-754403,-3.821807039,ZrO2
mp-755829,-2.247321723,BSbO3
mp-35591,-2.182329301,LiErS2
mp-705906,-2.911061359,SrLa3Mn4O12
mp-3218,-0.930091525,Er(SiPd)2
mp-862546,-0.5316525,Sc2AlRu
mp-998363,-1.04909141,NiBiO3
mp-763922,-1.578441153,Li2FeCo3O8
mp-677709,-3.335609758,Na3Sr7Ti7Nb3O30
mp-753801,-2.216533004,Cs2Sr2O3
mp-123,0,Nd
mp-23804,-0.383403917,Mg2FeH6
mp-554441,-2.649550378,NaTi2Ga5O12
mp-703492,-0.480761458,Zr3Zn3C
mp-2212,-0.365215052,ScCo
mp-540803,-0.872499849,Sr3(LiSb)4
mp-865586,-0.472604047,VGaRu2
mp-5766,-1.673755713,CeCuS2
mp-1018726,-0.621867913,HfVGe
mp-762856,-2.429596911,Li2Fe(PO4)2
mp-974810,1.142463545,Rb3Ru
mp-5779,-3.139662494,Sm3RuO7
mp-11417,-0.628980595,TbGa
mp-640053,-1.719584597,Rb2CuCl3
mp-8713,-1.241394716,K2MnS2
mp-554988,-1.507812238,Ag2Ge2O5
mp-764752,-2.932114956,LiV2OF7
mp-505496,-0.698987568,RbP4N7
mp-9916,-0.498422471,NbCrSi
mp-643666,-1.769569793,InH5NOF4
mp-570270,-1.454255833,NbSeCl3
mp-18629,-2.915865811,NaTmGeO4
mp-23196,0.096776118,U3Bi4
mp-976333,-0.200549242,Li2AcTl
mp-22152,-0.27957317,NaFeAs
mp-7929,-1.154491954,Rb2PtS2
mp-13934,-3.092149939,Ba2TmReO6
mp-4492,-0.435476166,MnCo2Si
mp-752520,-2.456434092,GdIO
mp-18177,-1.522099121,Ba3NbAs3O
mp-673047,-1.805898601,CuPO4
mp-555730,-3.898758444,Na2Ca3Al2F14
mp-1948,-0.262449792,LaAg
mp-1963,-0.403944018,NbRh
mp-973734,-0.413384846,Lu2InHg
mp-505278,-0.982757791,Zr9(NiP2)2
mp-18232,-0.461015869,Ce2Al3Ge4
mp-8584,-1.695995412,NaErSe2
mp-30970,-0.210928864,Er12Co7
mp-22168,-0.951921893,Mn(InS2)2
mp-763912,-2.596171987,V3O5F
mp-8192,-2.448487985,Rb2PtF6
mp-1229,-1.814958066,CuF2
mp-559161,-2.628196285,CrCdF6
mp-1008680,-0.870503737,TiGePt
mp-19167,-1.168313704,Rb2NiO2
mp-3632,-3.335927906,YSF
mp-555095,-2.59410259,Ba5Re3NO18
mp-12570,-0.249034218,ThB12
mp-867883,-0.388931508,La3Pb
mp-23253,-0.271304843,RbBi2
mp-2098,-0.242773953,CeOs2
mp-676072,-1.428150869,Ce2PbSe4
mp-29138,-0.586842435,KAuSe2
mp-755053,-2.450501687,Ga4SiO8
mp-621659,-0.775240074,La2Ge5Ir3
mp-567352,-0.448724663,Ga(SbBr)4
mp-680636,-0.135552085,Er(Al10Cr)2
mp-29532,-2.928553376,Ca11(ReO6)4
mp-1144,-1.610214304,ErP
mp-607721,-0.653566413,NdZnRh
mp-763427,-2.541975223,V4O7F5
mp-554332,-3.248469747,SrCrF6
mp-867544,-1.713532792,Na4Bi2O5
mp-556443,-2.521077025,Ba5Ru2Cl2O9
mp-28001,-0.584316161,Lu(BRh)4
mp-570920,-0.145152155,Ga5Fe6
mp-25959,-2.54095603,LiBi(PO3)4
mp-11581,-1.219551037,Tm2NiAs2
mp-20900,0.07794786,Cu3Sb
mp-2197,-0.529102165,BaHg
mp-766543,-3.215544708,Li7Ti11O24
mp-753619,-2.913984067,BaSrO2
mp-755322,-1.675555462,BaNa6O4
mp-703559,-1.636068638,KSrAs(H4O3)4
mp-568014,0.043391543,Nb3Bi
mp-17532,-0.56528424,Y3(Si3Os)4
mp-31815,-2.409080365,Li2Fe(PO4)2
mp-697033,-0.992677502,CdH4CN2Cl2O
mp-755868,-1.645867297,LiCu5(PO4)2
mp-741045,-2.654121381,Na4AlP2HO9
mp-5081,-1.716161365,SmCuS2
mp-34680,-2.429963314,SrNd5S8
mp-775027,-1.932582275,Li2Mn3CoO8
mp-14305,-2.028439004,Lu2MnS4
mp-864891,-2.655428388,NaPO3
mp-653561,-0.787202976,Tl2GePbS4
mp-3847,-0.344300959,DyCoC2
mp-8773,-2.329975729,K3CO3F
mp-2127,-1.446067549,Pr3Te4
mp-998333,-1.597897396,CsCaI3
mp-34783,-1.844166225,Ga2CuO4
mp-28323,-0.809188743,Pd2Cl2O
mp-2199,-0.315344269,Fe3Si
mp-33029,-2.873272574,Nd2O3
mp-29835,-0.687172759,K2SnTe3
mp-1019587,-3.414283041,CaAl2SiO6
mp-560830,-3.606163205,Nd3Si2ClO8
mp-4668,-0.478135143,K(CoSe)2
mp-28270,-0.982705633,KCuS
mp-15932,-1.775125024,SmCrS3
mp-18894,-2.980692023,CaCo(SiO3)2
mp-558325,-3.103115546,K2YNb5O15
mp-753175,-1.781043305,SrH2(SeO3)2
mp-3084,-0.756136753,Sc2Ni12P7
mp-626835,-1.228114825,H8PtO6
mp-862845,-0.348854407,IrCl2
mp-561414,-1.490653478,K3Hg3S2Br5O6
mp-1018880,-0.520872297,PaSb2
mp-38240,-2.463371374,Sr(PrS2)2
mp-772882,-3.054669684,Dy2Ge2O7
mp-607139,-0.739795272,ZrSnIr
mp-774332,-1.436344623,Na2Co2O3
mp-8300,-1.586394787,Ba4As2O
mp-21000,-0.47875868,Dy(MnGe)2
mp-29260,-1.994466959,Ti(SeO3)2
mp-996954,-0.827619664,CuPtO2
mp-17057,-2.228873045,Sr2SnSe3F2
mp-767617,-3.153210126,LiVF4
mp-776510,-2.457139048,Li3Sb3P8O29
mp-29618,-0.407071567,NiP3W2
mp-754218,-3.365261697,Tb2SeO2
mp-769526,-1.39420423,Li7MgNi7O16
mp-774651,-1.807812475,LiZnAsH2O5
mp-770722,-2.606642709,Mg3Mn5(BO4)4
mp-776135,-1.64020461,Fe23O32
mp-733790,-3.286069004,SiO2
mp-759658,-2.160996241,LiAgF2
mp-561357,-2.097685692,TiNb3Cl7O2
mp-768459,-2.411607107,Ti2(SO4)3
mp-772939,-2.538121336,Li5Cu(PO4)2
mp-767269,-2.040630073,Ga7(Fe3O8)3
mp-390,-3.517319291,TiO2
mp-542264,-2.708669995,BaNaCe2C4O12F
mp-2790,-0.479273078,Ni12P5
mp-771190,-1.786990471,Mn15CrO32
mp-997630,-1.628179981,ZnO
mp-540553,-2.205886566,Te7(OF5)6
mp-570123,-2.002422685,Cs3BiCl6
mp-10852,-0.441781428,La(BC)2
mp-722342,-2.512162656,NaCa2B9(H2O5)4
mp-772222,-3.517145457,TmClO
mp-4251,-0.169242145,Pr(Sb3Os)4
mp-27127,-1.471426892,Te4O9
mp-4753,-3.395358515,Al2SiO5
mp-22149,-0.830572635,DyGeAu
mp-2431,-0.177285939,ErTl3
mp-4950,-3.719056724,KCaF3
mp-19077,-1.962844714,CrAsO4
mp-571609,-0.969818027,HfGaPt
mp-686041,-2.85769477,Li7Nb8O24
mp-3962,-3.526525286,LaPO4
mp-760162,-2.21653695,BiOF
mp-782652,-2.423690039,Li4Ti3Cr3(NiO8)2
mp-972748,0.400203883,Si3W
mp-561232,-1.315956698,NaSm(PS3)2
mp-867268,-1.198180588,K4P2PdS8
mp-33615,-2.532380844,Ba(LaS2)2
mp-12504,-0.865372968,CeZnPt
mp-556570,-0.633745627,Ag4Se(IO2)2
mp-780518,-1.383425362,Li5(NiO2)4
mp-31369,-3.280870362,Gd2B4O9
mp-978509,0.143866309,Si3Ru
mp-568895,-0.92568589,BaSbAu
mp-19738,-0.530239356,ErMnSi
mp-675723,-2.495145618,NbHg2F6
mp-22555,-0.815190066,RhS2
mp-30324,-0.602929565,Mg5(Si8Pt5)2
mp-31104,-0.34543223,KBi
mp-766457,-2.524511744,LiSnP2O7
mp-24297,-1.823295319,SrP2(HO)4
mp-2882,-2.588314908,Y2Cu2O5
mp-1404,-0.17605491,CdAu
mp-861937,-0.948285381,Ba2AsAu
mp-768283,-1.917122944,UAs2H6O11
mp-776261,-2.025618527,Na5Sn2P(CO4)4
mp-4382,-0.472459829,YB2Ru3
mp-772420,-1.723651804,Li2Co3SnO8