id,band_gap,pretty_formula
mp-3288,2.3426,CsNO2
mp-744948,3.8562,FeH8(ClO2)2
mp-780583,3.073,Li2MnFe(BO3)2
mp-543039,3.0439,TePbO3
mp-626729,3.9162,Ga(HO)3
mp-569751,5.4006,AlPH8(CCl2)2
mp-27717,2.3707,As2S2F3
mp-706239,3.3303,NaCa2Mg2V3O12
mp-17090,2.094,SrTlPS4
mp-555223,1.4156,Cs2MnF5
mp-679669,1.8507,NaZr2SN2Cl
mp-554888,2.2593,KUI3O11
mp-541789,2.7422,CsGd(CO3)2
mp-706809,1.7357,Ca2Al11Si13Ag7O48
mp-555096,0.3681,PrS2
mp-29460,1.634,Tl3PdCl5
mp-769601,1.3767,LiVSO4F3
mp-983327,5.1837,KH4O2F
mp-721047,5.1371,CaH8(ClO2)2
mp-554072,3.6203,K2CO3
mp-555561,2.3859,BaU(SiO4)2
mp-557441,2.103,KAu(IO3)4
mp-31980,1.2762,LiMn(PO3)4
mp-768821,2.9226,Li2Bi2B2O7
mp-695998,4.1269,K2ZnH4
mp-510062,2.0217,CsSmCdSe3
mp-557211,5.5536,SiO2
mp-778885,0.3743,Li10Mn3Cr2Ni3O16
mp-756202,3.5958,Ba2SrI6
mp-722997,6.6351,NaCaAlH2OF6
mp-556548,3.9705,Bi(BO2)3
mp-780195,2.7427,LiVP3HO10
mp-774425,1.8466,FeSb3(PO4)6
mp-743698,0.5239,Ca5Dy3Ti5Mn3O24
mp-23653,4.1751,Na3MgC2ClO6
mp-779525,2.3308,Li3Sb3P8O29
mp-27272,2.1548,Ca3PI3
mp-775980,3.576,ZrO2
mp-779837,2.0673,Hf2N2O
mp-753842,0.6787,YZr5O11
mp-1019533,4.5047,Ba9Y2(SiO4)6
mp-3439,4.0074,SbPO4
mp-769319,3.1672,LiNb(OF)2
mp-31113,3.5865,Dy3GaO6
mp-777670,1.0215,Li4V3Cr3(SnO8)2
mp-3051,3.4021,Mg2GeO4
mp-23986,3.017,NaH6ClO5
mp-541688,1.5323,K3GaTe3
mp-18156,1.2589,KBaPSe4
mp-10250,6.5643,BaLiF3
mp-19323,3.0044,SmVO4
mp-505260,1.178,Te10Mo3I10
mp-561346,3.454,Na2ZrGeO5
mp-752768,1.1198,LiAgF4
mp-849518,0.2733,Mn12O7F17
mp-755441,0.982,SrTaNO2
mp-570873,0.7654,Nb(Te2I3)2
mp-656850,1.1493,Ti2O7
mp-571015,1.6639,CuP4Se4I
mp-504607,2.0507,YInO3
mp-982980,5.2201,Na3DyCl6
mp-570218,4.8396,LiBeH3
mp-766345,5.2002,Y5O4F7
mp-26173,3.3947,LiBi3(PO5)2
mp-6075,4.9339,Ba2Li(BO2)5
mp-764889,0.2871,Li9Fe5O12
mp-605642,4.8286,KB3(HO3)2
mp-7210,2.4647,Cd2B2O5
mp-21532,3.5549,La2Ge2O7
mp-573514,0.5562,CsSb
mp-1285,0.6039,PtO2
mp-698060,7.0027,PHOF2
mp-864638,1.4758,Ba2InBiS5
mp-780329,0.3541,Li2MnV(P2O7)2
mp-17912,2.3029,Rb3SbSe3
mp-766179,3.4775,LiSi3BiO8
mp-849672,0.4425,Mn6OF11
mp-604694,2.7058,FeP3(HO2)6
mp-3476,4.4803,P2PbO6
mp-773135,0.6989,Li3Cu3(PO4)2
mp-773136,0.6086,LiCu2PO4
mp-6099,4.9302,LiSc(SiO3)2
mp-541487,0.5086,TlPt2Se3
mp-770213,0.6227,Li3Ti(BO3)2
mp-9453,0.7206,Sr2ZnCu2(SO)2
mp-616597,2.7049,ReHgO4
mp-765706,0.9488,Li2VFeO4
mp-8885,1.7353,BaCdS2
mp-12642,2.8547,Ba2TmNbO6
mp-623862,1.9139,Rb3Tm2Cu4Br13
mp-567524,0.8722,K3Ga3As4
mp-767036,2.455,Li2Co(CO3)2
mp-17329,0.3347,PrS2
mp-561814,5.9404,RbB5O8
mp-766310,3.6691,BaCa2I6
mp-22235,0.3886,Cs2MnSnTe4
mp-773139,1.208,Li4V3Sb5O16
mp-744747,1.7059,V2P2H4O11
mp-6204,6.7991,Cs2NaScF6
mp-23174,0.9633,ReCl3
mp-866688,1.4224,Cs4P2PdSe8
mp-777423,3.6318,Na6Ti2O7
mp-773177,2.6193,Na3CoAsCO7
mp-6943,3.2757,Ca4GdB3O10
mp-11659,2.3888,BaTi(BO3)2
mp-752526,3.1004,Lu2TeO6
mp-697168,4.774,MgH6(NCl)2
mp-777563,2.191,Ta2H15N6Cl7
mp-29245,1.054,Cd2P3Br
mp-20079,0.9345,CaPbO3
mp-611836,1.2922,O2
mp-755621,1.5507,BaNb3NO7
mp-9719,1.8976,Na2LiAlP2
mp-17909,5.7313,SiO2
mp-553896,3.3552,K3MoF6
mp-6137,4.8355,Mg4P6SN12
mp-10620,3.5466,LiPrO2
mp-667343,1.1043,Re2(HgO2)5
mp-19365,3.7532,Ba3V2O8
mp-27726,2.8436,SO2
mp-1013550,0.6593,Ca3SbP
mp-558707,2.4248,K2UAs2O9
mp-4816,2.2014,LaGaS3
mp-4408,3.0697,Sm2Zr2O7
mp-998193,3.4431,RbSnF3
mp-778245,0,Li4FeF8
mp-707377,4.6737,RbHSO4
mp-755512,2.843,Sm3NbO7
mp-763057,1.2176,Mn(CoO3)2
mp-505281,2.6392,CsSbS6(O3F)6
mp-27389,4.1611,KSb2F7
mp-740711,4.4843,Cs3B6H12Se4Br
mp-675710,1.6245,K2U2O7
mp-568965,3.4391,CaSiN2
mp-755004,1.9381,CsInO2
mp-560151,5.4802,AlPO4
mp-756560,2.4964,Li2Ti3O7
mp-774547,3.8648,Er2GeO5
mp-778794,1.1764,V3Cr2Sb3O16
mp-562072,3.1046,Cs3SbO3
mp-756437,3.0379,SrLaBr5
mp-30528,1.2884,MnTlCl3
mp-698627,1.1055,Ti5Fe11O24
mp-16989,0.5398,K5SnAs3
mp-568423,1.4268,AlPI8
mp-763609,0.7011,Li4Mn5O10
mp-18566,5.2031,LaSnF7
mp-676820,2.4793,Tm2Zr8O19
mp-770648,4.0226,Li8ZrO6
mp-1019568,4.4797,CaAl2SiO6
mp-560632,3.8215,NaGaSiO4
mp-557384,2.2225,MgUB2O7
mp-775226,0.5654,LiMn2(BO3)2
mp-546125,3.5219,ScAsO4
mp-754556,0.7013,Nb3N5
mp-744463,2.724,Li2Ti4Co(AsO5)4
mp-760002,0.4478,Li3Cu2F7
mp-12944,3.6089,HoAsO4
mp-961698,1.2061,LiZnP
mp-769289,0.6595,Y2Hg2O5
mp-13066,4.1922,Er2O3
mp-2184,4.0085,As2O3
mp-571057,1.8831,KY(PSe3)2
mp-42897,2.811,NaPrTiNbO6F
mp-559747,2.6195,La2Ti2SiO9
mp-703545,1.5847,SbH6C(NCl2)3
mp-18240,0.2228,Tl2Cu2SnS4
mp-1019548,3.945,BaGe(S2O7)3
mp-8861,6.2289,Rb2MgF4
mp-554056,5.2051,Ca2B5BrO9
mp-3792,5.5394,YAlO3
mp-780477,0.3299,Li3MnV(PO4)3
mp-754113,5.2921,TmClO
mp-24595,5.0205,Ca2B5H2ClO10
mp-18773,1.332,WO3
mp-694915,0.6681,CaLaMnSnO6
mp-27198,3.4586,Cd(NO3)2
mp-550685,2.9977,Ba2CaTeO6
mp-25840,2.5463,LiTi2(PO4)3
mp-556417,2.4257,Rb2NiF6
mp-625860,3.4039,Sr(H8O5)2
mp-15417,1.2292,K2GaP2
mp-696683,5.1693,K3SnHF8
mp-558272,4.9669,Na3ThP3O11
mp-9806,2.6995,KGd(CO3)2
mp-766254,0.3494,Cu(PO3)3
mp-15795,1.5518,LiDySe2
mp-570577,3.5822,SrAlSi4N7
mp-772573,1.2867,Li2Cr5B3O13
mp-28891,4.3799,Li7TaO6
mp-757138,4.0198,Li2Sn(PO3)4
mp-680232,3.1994,K2AgC3(SN)3
mp-705528,4.8844,NaCaB5H8O13
mp-673656,1.555,Y2Se3
mp-16691,2.8381,SrLi2Ti6O14
mp-985593,2.5394,NaAg(CO2)2
mp-10226,2.2807,NaYS2
mp-504966,0.2268,Ba2Y2CuPtO8
mp-13740,1.5018,AgAsS2
mp-9085,2.1587,CsTbS2
mp-777738,4.9283,Al(HO)3
mp-561243,2.3845,Sr2CuClO2
mp-558580,3.6116,Na2Zn(SiO3)2
mp-561396,3.9646,Li3CrF6
mp-556075,3.6952,SrDy2O4
mp-18717,0.2447,SrVO3
mp-782034,2.5152,YNb2NO5
mp-18935,2.6958,K2V(PO4)2
mp-560861,1.6103,Cs2KMnF6
mp-22977,0.4835,CsVCl3
mp-554825,4.1772,K2SnP2O7
mp-697313,2.6653,Al24Tl10Cd7(SiO4)24
mp-774374,0.4108,Na3FeO4
mp-18941,1.3982,Co2SiO4
mp-559238,3.0936,CsLi2BS3
mp-755043,5.0535,Al2Si2O7
mp-676524,0.3846,Tb7(CuTe4)3
mp-556233,3.0576,KAs4ClO6
mp-27517,0.5542,Rb2CoI4
mp-770808,2.8956,LiB2SbO5
mp-600000,5.4117,SiO2
mp-22506,0.5005,Cs6InAs3
mp-764571,1.6913,Li2VFeP2(O4F)2
mp-677250,4.3177,K2LuZr(PO4)3
mp-770362,2.2165,Li3Al2VO6
mp-721253,1.4633,Li10Si(PSe6)2
mp-5794,2.3123,Zn(GaO2)2
mp-780207,2.3869,Li5FeO4
mp-8484,2.134,ZnO2
mp-850340,0.461,Fe4O3F5
mp-755537,4.2493,Y2HfO5
mp-562057,7.1052,Cs2Ca2Be3F12
mp-29216,2.0518,Cs2PtCl4
mp-504922,1.521,UPbO4
mp-768915,1.8245,Na3AuO3
mp-554918,5.2315,BaY6Si3B6(O12F)2
mp-14568,6.8041,BaMgF4
mp-849271,1.9818,AgIO3
mp-775122,1.281,LiLaNb4O12
mp-759128,3.6068,Li3Sb2(PO4)3
mp-8323,2.1699,Dy2S2O
mp-756981,3.8399,K2SbPCO7
mp-625513,1.7656,Te(HO2)2
mp-772627,3.9249,Ho2(WO4)3
mp-30519,3.2826,Tl3PbCl5
mp-5824,1.5678,Hg2NO4
mp-1922,0.3122,RuSe2
mp-553901,1.8942,H6RuN3Cl3O
mp-8201,2.2341,Rb3PdF5
mp-1018118,0.3613,TmSbPd
mp-542271,5.3623,Y2H16S3O20
mp-27775,1.3455,U(BiO3)2
mp-3531,5.4171,Ca2P2O7
mp-561286,2.0218,ZnS
mp-12866,1.6118,SrSnO3
mp-15599,5.3171,K2Ca2(SO4)3
mp-570099,0.5884,RbVBr3
mp-756732,0.5877,Rb3Sn4Au
mp-645291,3.0356,As3Pb5ClO12
mp-28279,2.1401,Gd2NCl3
mp-849470,1.1591,Li7Co(O2F)2
mp-775852,2.5506,Li4Sb2C4SO16
mp-774370,2.6132,Li6Mn5Fe(BO3)6
mp-849331,1.0136,Ti2N2O
mp-1013726,1.8553,Cd4SF6
mp-556066,4.7908,Sr2LiSiO4F
mp-850972,0.5725,Li4Mn5Cr2O12
mp-38442,1.6467,CsNd5Se8
mp-707285,0.5667,CuH16(IO8)2
mp-554063,4.3991,SmSeClO3
mp-4867,3.9982,CaAl4O7
mp-10410,1.8973,Ba4Sm2Cd3S10
mp-21511,1.0499,K2NaInP2
mp-569287,0.8605,TlPAuSe3
mp-765289,3.2899,LiSnPO4
mp-9068,1.4928,K2NaAlP2
mp-758221,4.7221,CaH12S2(NO5)2
mp-3488,2.9887,Na2Ti3O7
mp-775989,2.2866,CrFe3Sb2(PO4)6
mp-570238,0.4986,P10Au7I
mp-28007,1.1569,BaHgS2
mp-12180,2.0084,NaS2
mp-636654,1.7236,LaTiNbBi2O9
mp-583221,2.1191,Ba7B4Se13
mp-775021,2.671,NaLi3Fe4(SiO3)8
mp-767430,3.1961,Na3CdPCO7
mp-780053,2.9825,Na2Ge2O5
mp-753815,4.1583,CaY2O4
mp-675012,2.4414,Ho2Zr8O19
mp-778019,2.2358,Ag2H16O9
mp-559379,3.1498,SbTeClO3
mp-4025,0.2529,TmNiSb
mp-695295,0.8401,H22RuN7(ClO2)4
mp-19321,0.7782,Na6MnO4
mp-558133,3.2318,Rb2MnF6
mp-777479,1.3868,VO2
mp-645568,2.7802,TlCr(MoO4)2
mp-780370,4.1378,Sm3Al5O12
mp-3427,4.5899,LiAlO2
mp-27280,2.0864,Na2MnCl4
mp-31361,0.973,EuIBr
mp-2072,0.6627,KTe
mp-24488,4.3334,NaZn2H3(SO4)2
mp-558588,1.33,BaPt2S3
mp-649086,2.1071,GaFeO3
mp-7387,1.7209,KAgF4
mp-685982,1.2218,MgIn2O4
mp-772566,4.7223,Ho2(WO4)3
mp-28518,1.8131,Tl6SBr4
mp-19197,1.5352,Ba3CrO5
mp-559112,0.7857,K2Zn6O7
mp-758097,4.5947,H6C2N4O
mp-1019539,6.1844,BaB2S3O13
mp-695250,3.0727,BaLa7Mg5Nb3O24
mp-607399,0.8876,Al2CrCl8
mp-755342,2.5257,LuGaO3
mp-23432,5.4426,BaClF
mp-13335,3.3431,Cd(BO2)2
mp-16839,1.7679,Na3WN3
mp-625392,4.9588,Lu(HO)3
mp-768125,3.6367,Na3GePCO7
mp-768355,6.8949,BaYF5
mp-756277,3.6197,Er3TaO7
mp-15239,3.0611,Nd3Ga5O12
mp-773199,1.1471,Cs6Co2O7
mp-699229,2.1393,HPb3ClO3
mp-24195,5.6385,MgP2(H8O5)2
mp-555089,4.8297,SrLi4Ca(SiO4)2
mp-774106,1.5115,Li3Fe2(SiO4)2
mp-774715,2.4458,Ba4LiNb3O12
mp-4782,5.4068,CaSnF6
mp-625150,4.412,ScHO2
mp-766031,5.0672,NaMgH4SO6F
mp-542533,4.9524,CsNaB4H12O13
mp-559903,3.5587,NaLa(SeO3)2
mp-3975,5.6083,K2TaF7
mp-556645,3.1166,RbNbAsClO5
mp-1019794,4.877,K3LiP2O7
mp-554071,1.1542,Na8Nb2Cu4S21
mp-554094,5.7587,CaMg2(SO4)3
mp-31358,3.9289,RbBO2
mp-30314,1.7005,Cs2PdCl4
mp-756052,3.3234,Ca3Zr2O7
mp-28371,1.4083,K2Zn3O4
mp-558432,3.2792,Na3P(SO)2
mp-21644,0.2034,BaNb8O14
mp-850973,0.3299,V3O5F
mp-554552,3.3726,Zn3P2H2O9
mp-677430,1.9969,NaLiLa2Ti4O12
mp-667386,6.9159,Na3Sr4Al5F26
mp-2511,4.3846,PbF2
mp-723043,3.3701,K2TeH6SeO10
mp-28369,4.768,GeH3Cl
mp-567322,0.5094,KSm2Sb3Se8
mp-780155,1.8079,Li9Fe3(OF7)2
mp-17486,1.8505,Ho3CuSiS7
mp-770523,1.1802,Li4V2Cr3Fe3O16
mp-714944,1.0233,VO2
mp-867790,0.3416,Ba5Ru2O11
mp-552185,1.854,AgNO3
mp-765238,2.1408,Li4V3OF11
mp-781495,1.1591,Na2Co2O3
mp-777781,3.3032,Li2FeF4
mp-17829,2.0276,Sr3SmRhO6
mp-15316,6.2366,SrMgF4
mp-18735,2.1835,Ba2Co(BO2)6
mp-10748,1.9547,TaCu3S4
mp-561249,2.3053,Ba17Er16Zn8Pt4O57
mp-754717,3.0638,RbBrO4
mp-699399,0.5498,K2BaNi(NO2)6
mp-780320,0.5279,LiMn3(BO3)3
mp-770493,1.0974,Li5V2Fe5O12
mp-555940,2.9826,Dy2Te5O13
mp-5889,2.7098,Er2Ti2O7
mp-18922,0.4403,Mn5O8
mp-764744,1.7692,V2OF5
mp-642535,1.374,Cs4Sb14S23
mp-676778,4.1947,KBiF4
mp-780879,3.4445,LiMn3P3(HO6)2
mp-27192,7.1811,CsBe2F5
mp-568923,2.7508,Ba2BN2Cl
mp-23503,3.7821,Na3InCl6
mp-23926,2.7153,K2HgH2Cl4O
mp-29006,3.7573,P2SO3
mp-699137,0,Li4(CoO2)7
mp-642974,2.5978,SrCrBi12(Mo2O17)2
mp-621926,3.1096,Na2TiSiO5
mp-643263,4.0061,Na3VH6O7
mp-549737,4.091,Ba2Ca(BO3)2
mp-763659,0.9148,Li3V2(FeO4)2
mp-557463,3.7748,Na3ScSi2O7
mp-773119,0.6248,Na2MnAsCO7
mp-773087,0.4562,Li2MgCu2(SiO3)4
mp-17119,0.4532,SrCu3(SnO3)4
mp-558054,2.2704,SrLi2Ta2O7
mp-558336,4.0609,Ho2O3
mp-974586,3.2867,Rb2MgH4
mp-649774,0.7709,CuSbPbS3
mp-685043,1.2319,BBr
mp-18722,1.8208,Cs2LiMnO4
mp-555939,3.1058,Li2Te2O5
mp-552454,0.7545,SrTaNO2
mp-18961,2.4843,ScCrO3
mp-755609,2.1032,Y2SeO2
mp-1019573,4.6118,CaAl2SiO6
mp-754534,2.3502,Li2CeO3
mp-760230,3.0219,Bi5O4F7
mp-542180,0.9783,Th(TeI)2
mp-975336,4.2439,KCSN
mp-755635,1.5085,Ho2Pt2O7
mp-765719,0.3835,Mn6OF11
mp-12671,3.0733,Er2SO2
mp-758151,0.226,Li3Ti(PO4)2
mp-558725,0.4747,Ba5Ru2Br2O9
mp-559550,5.5993,SiO2
mp-556541,1.5236,InSb2S4Cl
mp-14280,1.6994,Ga2Sn2S5
mp-975140,0.2037,RbZn4P3
mp-694541,2.6538,FePO4
mp-559066,5.1907,Ba3Y(BO2)9
mp-770408,3.2141,Rb6Ti2O7
mp-6856,3.9654,Be3Zn4Si3SO12
mp-10771,2.3623,Dy4(SiS4)3
mp-557940,4.3598,KNd(CO3)2
mp-555568,4.2676,K2Zn(Si2O5)2
mp-23626,3.8084,RbLi2(IO3)3
mp-771083,1.305,Li6Fe2P(CO4)4
mp-19374,2.1817,K2SrNi(NO2)6
mp-625541,2.3051,Sn3(HO2)2
mp-14753,3.341,Li7TaN4
mp-770718,3.1068,Mg(IO3)2
mp-669388,1.3044,Gd2Se2O
mp-7446,1.3215,Rb2S3
mp-777622,3.3349,LiFeF3
mp-29034,0.413,Tl2GeTe3
mp-779773,1.8964,Na5GdO4
mp-621938,1.0042,Cs3Cr2I9
mp-780483,2.6394,Li2MnFe(BO3)2
mp-680240,2.3191,Sb2Cl5F4
mp-18909,3.7524,BaNi2(PO4)2
mp-770699,1.0708,KLiMnO2
mp-19519,2.3598,Ni3(AsO4)2
mp-758604,1.3824,LiAgF2
mp-777185,0.5212,Li4V2(PO4)3
mp-769242,0.4342,Li2Cu(HO)4
mp-14651,0.5748,Zr2AgPdF11
mp-581586,1.4184,Tl8Sb21As19(PbS17)4
mp-778884,2.6242,LiFeBO3
mp-22483,0.6367,NaInTe2
mp-15379,3.7439,K2SiO3
mp-29871,1.3341,Na4SeO5
mp-9365,2.3206,RbTbS2
mp-29080,4.2591,Na3YBr6
mp-17698,1.6626,K6CdTe4
mp-704962,0.395,Li3Mn3(PO4)4
mp-10080,3.9977,PrGeBO5
mp-775239,2.922,Li4Mn3Fe(BO3)4
mp-574430,0.2246,BaUI6
mp-570615,2.1637,BaThBr6
mp-770651,0.2294,Li10Fe9CoO20
mp-568177,0.3753,CaAlSiH
mp-18163,0.7534,Cd4GeSe6
mp-12488,1.5532,CsErCdTe3
mp-28185,3.3875,TaClF8
mp-557516,3.5047,K2Be2Zn2Si3O11
mp-568428,6.1615,KNa(BH4)2
mp-767641,2.658,LiV2F7
mp-768810,3.4879,Sr4Br6O
mp-541093,2.352,Nb2Hg3S(O2F5)2
mp-770522,2.5027,Li2AlVO4
mp-10621,1.9445,RbSbS2
mp-561458,0.3638,Na4Sc2(PO4)3
mp-721161,4.824,MgPH16NO10
mp-557484,2.0465,BiS4N3Cl4
mp-9157,2.8979,K3AlO3
mp-554174,4.8543,Ca2P2H8O11
mp-6952,6.5227,RbYbF3
mp-39123,4.2135,Na3Zr2Si2PO12
mp-759498,3.7262,LiSbP2O7
mp-776259,2.0534,Hf2N2O
mp-771711,0.8476,Li4V3CoO8
mp-540592,2.1308,Fe2(TeO3)3
mp-510569,0.7011,CsCeCuS3
mp-781054,1.4861,Li2Cr4O13
mp-743656,3.2229,Na2MgB12(H4O7)4
mp-865095,5.8536,NaGaH8(NF3)2
mp-775238,1.4584,LiFe2(BO3)2
mp-768268,0.5398,Li14Co2S9
mp-696993,3.7729,Sn2H2SO5F2
mp-23703,2.9737,LiH
mp-755552,0.3793,LiYS2
mp-767114,4.4386,SnP4O11
mp-765385,1.8898,LiV(CO3)2
mp-28273,1.5218,K3CuO2
mp-756245,2.1035,BaYI5
mp-567781,1.1954,Cs3Zr7BCl20
mp-4187,2.6066,Ge2N2O
mp-774361,3.5254,Li2Mn3F8
mp-625211,4.726,LiH3O2
mp-12010,3.7017,BaSeO4
mp-559109,3.3478,ErGeBiO5
mp-703517,0.3247,NaMgPH12O11
mp-11582,2.0656,LiGaSe2
mp-1345,0.3896,CaP
mp-29710,1.6479,Hg4P2O7
mp-1012551,4.4843,BaBrCl
mp-766123,1.8494,Ce4ThO10
mp-13133,3.4122,K2TiO3
mp-12365,2.0475,KThCuS3
mp-559064,2.8617,SnP2(Cl5O)2
mp-757917,2.8901,Be(GaO2)2
mp-630376,0.781,Sb6Pb6S17
mp-680395,1.3269,Li3As7
mp-866304,3.1318,Ba2GdB2ClO6
mp-776448,0.8223,BaNb3NO7
mp-561514,5.2256,NaSrB5O9
mp-8042,3.7286,ZrGeO4
mp-568606,1.3425,CsErTa6Cl18
mp-7897,0.2137,K3P
mp-775334,0.2445,V3Cu(PO4)4
mp-706336,4.0735,Na4Be2Si6Sn(HO5)4
mp-679985,0.2337,Ba3In4(CuO4)3
mp-1016200,0.5541,MgGeAs2
mp-29940,2.3509,SbClF10
mp-616458,3.2179,Cs2CO3
mp-760461,4.2796,LuBO3
mp-555874,1.034,LiAsS2
mp-28192,1.7478,AuSCl5
mp-555218,4.1634,Ba4Br6O
mp-32537,1.9546,Ag2W2O7
mp-766361,2.1388,Nb2O5
mp-22894,1.3959,AgI
mp-554577,5.6533,Li4P2O7
mp-8056,6.0203,Ca(BO2)2
mp-17599,0.6903,CaCu3(GeO3)4
mp-21445,1.6679,Ba3In2O5F2
mp-698101,2.1091,U(HO)8
mp-19397,0,Ba2Na(NiO2)3
mp-555691,4.3311,SrZn(SeO3)2
mp-775340,0.7267,Li2Cr(Si2O5)3
mp-557704,2.8696,TlNO3
mp-760477,4.3602,SmBO3
mp-20731,0.6237,In2HgSe4
mp-540714,4.9991,NaH8SNO6
mp-23547,6.0482,Ba7(ClF6)2
mp-5525,3.9994,KAlO2
mp-997046,0.8906,AuClO2
mp-8947,2.8242,Sr(BS2)2
mp-15576,3.3047,Dy3Ga5O12
mp-3529,1.583,K3VS4
mp-770399,2.4868,Li6Ti2O7
mp-4471,4.5953,ScAlO3
mp-763200,1.9412,LiVO3
mp-16690,2.3522,K2NdP2S7
mp-19293,1.2045,Sr2FeO3F
mp-625718,3.8645,Y(HO)3
mp-759650,3.1043,Li3Bi3(PO4)4
mp-779239,0.3257,Li3MnV(PO4)3
mp-29454,1.8559,Na3TlO2
mp-559588,1.533,CdSbS2Br
mp-753692,3.0055,Ho2Ge2O7
mp-868012,1.0986,Li4Nb3Fe3(SbO8)2
mp-22512,0.9985,Sr2In2O5
mp-556703,4.6934,Ba3Mg(SiO4)2
mp-779300,2.2848,LiFe2OF5
mp-30304,2.1648,Bi3SbO7
mp-545506,0.5443,GdZnPO
mp-779317,3.5197,LiMnF3
mp-863423,1.8584,SrGa12O19
mp-4900,2.2279,BaCeO3
mp-11151,1.0594,NaPrTe2
mp-772591,2.4627,Li2Mn2Si2O7
mp-504211,4.066,LiSn(PO3)3
mp-41414,1.2832,BaLaMgBiO6
mp-556039,3.6611,Na3Y(BO3)2
mp-1009129,3.0163,MgO
mp-827,4.1558,KN3
mp-770464,0.6626,LaBiO4
mp-14411,2.7748,K4GeO4
mp-782645,2.8968,Li2MnPHO5
mp-571425,0.7578,Ag2Hg7(P4Br3)2
mp-762049,0.5486,LiCu2PO4
mp-18099,4.7551,BaSbF5
mp-756372,2.2799,Rb2MgO2
mp-26261,0.8251,Li2Cu(PO3)4
mp-29000,3.5063,Na3B5S9
mp-4200,4.5051,ScPO4
mp-672966,0.7023,LiCu(PO3)4
mp-570744,0.4108,Si3As4
mp-17279,5.7153,SiO2
mp-767404,2.4894,Gd2As4O11
mp-568588,1.2742,NdTlSe2
mp-18073,1.0408,K7TaAs4
mp-19063,2.5125,ErCrO3
mp-756294,3.7459,Li2Ti2O5
mp-14368,1.742,SbAsO5
mp-554410,0.2266,Ba2LaRuO6
mp-21760,0.74,Rb2In2Sb3
mp-764524,1.3975,Li3Fe8(BO3)8
mp-765639,3.8606,Sm11Y5O24
mp-534982,3.8563,Al13Si5H14Cl(O17F2)2
mp-33302,4.2657,MgAl2O4
mp-557483,6.0556,YbClF
mp-555509,1.7618,Ho3CuGeS7
mp-643446,5.584,Ca2AlH8S2Cl(O6F)2
mp-40134,5.1172,ZnSiH12(OF)6
mp-4598,2.2143,Sr4PtO6
mp-29145,4.3287,H3N
mp-763901,3.2086,NaVO3
mp-19313,1.6686,Zn(FeO2)2
mp-558890,5.672,BaLi(B3O5)3
mp-690136,2.429,Mg4Al3(HO)17
mp-758224,2.9283,Li3Sn2(PO4)3
mp-753960,3.9308,Li2H2SeO5
mp-972808,5.5893,SiO2
mp-780294,2.6466,Li3Mn2Fe(BO3)3
mp-555548,4.9785,MgAlPO5
mp-10166,2.1615,NaAlSe2
mp-756909,0.2374,TlGaO3
mp-767363,0.3249,Li3Mn2(FeO4)2
mp-32688,1.4289,Nd2Se3
mp-16560,0.9475,KEr2CuSe4
mp-17129,1.905,Sr3(AlN2)2
mp-28041,2.9018,Pb9(Br5O2)2
mp-1008524,0.4728,BeSe
mp-757547,3.0629,Li2Sn3(P2O7)2
mp-568121,0.7854,Mn4Si7
mp-3009,6.6674,Rb2BeF4
mp-8377,2.8944,TeO2
mp-625367,4.1073,LuHO2
mp-7045,1.7437,RbGdS2
mp-778616,1.4702,VO2F
mp-550579,2.5856,ScTa(PbO3)2
mp-720985,2.5023,CaEr15Si8Se11ClO28
mp-541483,3.5968,Rb3Sc(HO)6
mp-558632,4.9615,KNaSO4
mp-720509,2.5623,Li10Si(PS6)2
mp-558314,1.0066,TaBi4ClO8
mp-17101,3.6052,CaNb2O6
mp-779315,0.7579,VOF
mp-1009082,0.4039,MgSnAs2
mp-766330,3.023,Ba6CaI14
mp-746670,3.1476,CoH22C3(N3O4)2
mp-762401,0.3381,LiCo(CO3)2
mp-19093,1.6456,Ba2UNiO6
mp-6252,0.2121,Sr2CuTeO6
mp-677283,2.5183,Sr4NdNb2Al3O15
mp-18217,2.3597,K3AlSe3
mp-861873,0.7232,TaTlO3
mp-756040,1.9117,Gd2HgO4
mp-530800,2.2106,Er2TiO5
mp-769589,1.1844,LiV3CrO8
mp-36007,1.6105,Ba(NdSe2)2
mp-15988,0.465,Li2CuSb
mp-773953,4.4003,Ba2LaCl7
mp-2654,2.817,Al2S3
mp-561710,1.6504,CsSnS3
mp-28695,2.5737,KSiH3
mp-770405,2.7244,BaLaBr5
mp-554282,5.4268,Lu3B5O12
mp-19281,2.1645,LaCrO3
mp-8002,3.739,LiGaO2
mp-708961,4.0571,BeH8SeO8
mp-561382,1.4757,NbBi4BrO8
mp-754055,2.8158,CsErO2
mp-19111,0.5147,NaV2O5
mp-9514,1.7219,Mg(AlC)2
mp-14985,0.6681,KZrPdF7
mp-771958,4.3826,Ba3LaCl9
mp-863062,3.4179,LiSiBiO4
mp-676320,0.884,In4(SnO4)3
mp-504371,4.0408,LiNi6P7O24
mp-540033,0.942,LiMnP2O7
mp-752793,1.9648,Li2AgF3
mp-27331,1.056,K3GeTe3
mp-556275,3.6203,Rb2Al2Sb2O7
mp-6699,4.9274,NaMgPO4
mp-574651,0.5046,CsSmMnSe3
mp-774368,2.6076,Li6Mn5Fe(BO3)6
mp-757490,3.3689,LiSnPO4
mp-558302,2.7623,Bi5BrO7
mp-568060,1.2979,Na4Ge2Te5
mp-567471,1.3495,HgI2
mp-680486,0.402,W6CCl16
mp-754323,3.1216,TmBiO3
mp-18685,1.0496,SrCu2GeS4
mp-30099,1.1312,PdSCl
mp-758527,4.634,K3ErSi3(HO5)2
mp-8430,3.0582,KLiS
mp-568796,3.6054,RbYbI3
mp-7624,4.9176,Er2Si2O7
mp-559766,5.6556,Cs3LiF4
mp-755573,1.6477,Cs2O
mp-6078,2.4494,Na2Cd3Si3O10
mp-28810,1.2203,Na2CS3
mp-772661,2.9352,Li4MnSn3(PO4)4
mp-774336,1.969,Li3BiS3
mp-756251,3.316,Ba2LaCl7
mp-5146,0.9581,Zn(RhO2)2
mp-3297,2.329,Li10Zn4O9
mp-17805,1.7222,Ba2SnSe3F2
mp-644307,2.701,Ca(H2N)2
mp-24065,5.2523,CaB2H10O9
mp-27333,0.6106,Tl3CoCl5
mp-765222,0.2109,LiSn3(P3O10)2
mp-25433,2.4631,TiO2
mp-27370,0.5754,P10Au7I
mp-555123,2.6874,KMnF3
mp-560240,2.5161,K2SbPO6
mp-29273,2.8677,Ca2Ge7O16
mp-753940,0.5698,KLiMnS2
mp-707324,4.1777,PH6SN3
mp-989529,3.5425,KRb2InCl6
mp-27195,1.571,In4Bi2S9
mp-11114,0.9994,KCuPdSe5
mp-762511,1.4949,LiFe2C2O7
mp-5512,3.9459,Sr4Al14O25
mp-13064,4.1995,Dy2O3
mp-626553,3.3637,Ca(H8O5)2
mp-574684,0.4777,Na2SnAs2
mp-33537,1.1873,Fe2MoO4
mp-705116,1.0287,Sr2MnMoO6
mp-863066,1.7454,Ta6Pb4O19
mp-764593,3.1027,Li3Fe3OF7
mp-557411,2.5205,KRb2VF6
mp-9660,0.4905,Sr2Cu(BO3)2
mp-698567,2.0176,Cr(Bi7O12)2
mp-19497,3.9476,Na5Y(MoO4)4
mp-1019803,4.1426,KAl9O14
mp-19399,2.4343,Cr2O3
mp-29654,2.9118,B9H11
mp-720376,3.5177,H4SeO5
mp-16945,1.5856,Sr3(GaN2)2
mp-975666,4.463,PrBrO
mp-38684,5.277,Li2MgCl4
mp-29890,2.3423,Th2AuF11
mp-684093,4.7433,LiBi(PO3)4
mp-557743,7.1437,KCaAl2F9
mp-15236,0.4882,CrSbSe3
mp-1190,1.1693,ZnSe
mp-541283,2.9006,InGaBr4
mp-864766,5.6118,NaMgSO4F
mp-771914,3.9828,Ba3La2Cl12
mp-866637,1.477,KPPdS4
mp-771580,0.9053,Li4Fe3TeO8
mp-699636,1.1595,KTb2Cu(MoO4)4
mp-3446,3.8127,SrTm2O4
mp-765090,3.1111,LiMnF3
mp-582723,0.7391,Cs3AlAs2
mp-9212,3.8007,NaAlO2
mp-6126,2.1156,LiCdBO3
mp-5606,4.2986,AlTlF4
mp-1019583,4.2918,CaAl2SiO6
mp-581857,3.2284,KBiF4
mp-781081,3.1099,VOF3
mp-557059,1.3265,RbSnS4
mp-3267,1.5464,TlSb5S8
mp-770370,1.2388,V3BO6
mp-9844,4.6467,BaAl2B2O7
mp-697726,3.0142,Li2CoP2O7
mp-767011,1.2898,Li7Mn3(SiO6)2
mp-850739,1.4472,Fe3OF5
mp-768241,3.8478,Dy2Ge2O7
mp-758632,3.7863,NaH2C2N3O
mp-756297,1.1801,ZnIn2O4
mp-776630,0.9154,V2O3
mp-669476,3.633,Ba2ScCl7
mp-556596,5.4786,AlP3(HO2)6
mp-690866,0.0107,LiMnPO4
mp-697945,2.9851,K2CdH4(SeO5)2
mp-29020,3.1342,P4SeO6
mp-720868,4.2419,Ca2CdH24(ClO2)6
mp-23574,1.8686,SbPCl8O
mp-7825,5.7956,K2GeF6
mp-649453,2.1064,Ca3BCNCl2
mp-761765,0.9324,Li3Mn3SiO8