id,band_gap,pretty_formula
mp-560186,4.1139,BaMgSiO4
mp-761341,1.1908,TiVO4
mp-559715,4.5943,Li2Cd(PO3)4
mp-33325,0.868,Mg(FeO2)2
mp-766275,1.6688,Ca2Bi10O17
mp-850305,3.713,SrCaI4
mp-28584,1.5763,Tl2CuI3
mp-554018,5.2405,Mg3BeAl8O16
mp-989558,4.7796,Cs2TlGaF6
mp-541956,3.0085,CsTiAsO5
mp-29373,0.2452,KAlSb4
mp-579086,1.8229,KSrNb2O6F
mp-696651,4.0956,K3NbHOF7
mp-10811,1.9873,NaSr4(BN2)3
mp-19367,2.8661,NaCr(SiO3)2
mp-752426,0.6525,Li3SbS4
mp-772529,3.1883,Y2W2O9
mp-779305,2.6808,Li2FeBO4
mp-559119,1.4664,IN2O4F5
mp-9018,3.2221,LiCdPO4
mp-8181,1.2158,Li2CeN2
mp-697742,1.0641,MnP2O7
mp-777491,0.9151,Li3V2P4(HO8)2
mp-763482,2.2631,VPO5
mp-28513,4.3473,Pb(ClO3)2
mp-23887,4.9654,MgH12SO9
mp-4002,6.4809,Li2ZrF6
mp-972117,3.6077,SrTeO3
mp-12929,3.6895,SmAsO4
mp-697128,5.2779,KCa2P4H11O18
mp-28684,1.9007,Sb7Se8F35
mp-555596,3.1497,K6Si2S6O
mp-567185,1.3638,SnHg6(As2Br3)2
mp-36940,6.1636,Mg(CN)2
mp-556911,3.3829,FeF2
mp-1554,0.2686,KTe
mp-4092,3.512,SrSeO4
mp-686718,2.958,Sr5Al11TlSi13O48
mp-28501,1.0868,K2(NbCl3)3
mp-14324,2.4329,K2Na4Be2O5
mp-3319,1.1563,Mg(RhO2)2
mp-652494,1.3321,Cs4Re6S13
mp-2469,1.0461,CdS
mp-776933,3.0921,LiFe2F5
mp-766208,2.0419,Ba3LiTi5Nb3O21
mp-770625,2.5105,Li4Al3Cr3(SbO8)2
mp-673073,3.9962,LiSbP2O7
mp-16116,0.8488,RbSm2CuSe4
mp-567780,2.3927,RbSn2Br5
mp-18258,3.2026,BaTb2O4
mp-5915,2.7867,TlNO3
mp-23583,0.5782,Cs4BiSbCl12
mp-557391,4.815,Na2Ca2(CO3)3
mp-775202,1.2843,CrSb3(PO4)6
mp-555194,2.7834,SiHg3(SF3)2
mp-996956,0.5391,CuHO2
mp-780288,1.0185,Li3Si2(NiO4)2
mp-542874,5.3046,LiAl(SiO3)2
mp-753541,1.0159,LiCuF4
mp-555211,5.6207,SiO2
mp-18246,1.4227,K6MnTe4
mp-21562,0.7093,Sm3InSe6
mp-19245,0.2883,BaLaMn2O6
mp-767632,2.0763,VPO4
mp-779783,3.2011,Li4MnFe3(BO3)4
mp-540951,5.3329,Na2Sr(PO3)4
mp-782643,0.444,Li5Mn6(BO3)6
mp-699266,5.1763,K2MgH8(SO6)2
mp-755391,1.5152,BaNa2O2
mp-759172,1.9391,TaSb3O8
mp-16969,4.6923,Lu2SiO5
mp-9489,2.4303,NaSmTiO4
mp-764502,1.6929,Li3Fe4(BO3)4
mp-851029,0.5382,Li4Ti3Ni3(SnO8)2
mp-740719,3.2604,Ba3In2(HO)12
mp-571540,4.0185,ZnCl2
mp-735530,2.5401,Ba2Fe3P6HO22
mp-774523,2.9263,Li3Sb2(PO4)3
mp-781753,1.2105,Li3CuP2O7
mp-560649,2.6642,KLa(PS3)2
mp-5694,2.3055,NaHoS2
mp-769207,3.0825,Y2(SeO4)3
mp-554083,2.8585,BaZnAs2O7
mp-756142,2.4279,La2Th5O13
mp-29537,1.0552,Cl2O
mp-29577,3.0454,CsBrO4
mp-19435,1.6901,CoMoO4
mp-721217,5.0961,K2P2H2O7
mp-571582,0.6522,TlHg3Sb2Br3
mp-40161,5.0441,NaHf2(PO4)3
mp-23097,1.7286,K2Os(Cl2O)2
mp-18344,1.5003,Ta2Tl4S11
mp-684817,3.0471,K2LiTa6(PO8)3
mp-29301,2.6305,Ba4Ga2S7
mp-777567,4.2363,LiFeF4
mp-704942,2.1007,Li2Cr(PO3)5
mp-558135,1.6005,Ti4S8Cl6O
mp-770173,0.7952,Mg2Mn3O8
mp-863944,0.7331,Ba5V5O14
mp-23046,4.3112,SrIF
mp-776093,2.6314,CsAsO3
mp-849565,2.314,V2O5
mp-555507,6.4233,Sr10Al2ClF25
mp-4959,2.9781,Ca(GaO2)2
mp-19092,2.2831,CoWO4
mp-768665,1.8463,LiBiB2O5
mp-707491,2.3645,Re6H12Pb3C2S2(N2O13)2
mp-706631,4.6154,Na2B3HO6
mp-772273,4.2489,Li2MnH4(SO5)2
mp-1018656,1.5507,Ca2H3Br
mp-768368,1.2568,K4I2O
mp-999200,0.3218,Si
mp-774465,0.6345,LiMn(SO4)2
mp-558332,1.8748,K5Au(IO)2
mp-23956,3.4515,K2MgH4
mp-770426,5.0178,Ho(ClO4)3
mp-779893,5.4353,DyP5O14
mp-23963,3.2139,HIO3
mp-569098,2.1756,RbNa11(WN3)4
mp-8263,2.804,KNa2BO3
mp-27184,3.2677,B10(Pb2O7)3
mp-694952,1.1469,Ti5Fe11O24
mp-698576,1.2333,Ti3Fe5O12
mp-646102,1.8217,Al3Bi5Cl12
mp-24674,5.8481,Be3P2(H2O5)2
mp-770707,3.0695,Li2AlFeO4
mp-686705,0.2677,CaNb2Ga2(CuO4)3
mp-772434,1.7279,Li4CrO4
mp-849675,0,Li5Mn6(BO3)6
mp-771303,2.1114,LiMnB2O5
mp-754892,0.4777,Rb3ClO
mp-7748,4.7338,NaAlO2
mp-723002,2.9412,Ag2H12S(NO)4
mp-601817,1.9394,Cu4H3C2N5
mp-30094,4.7099,H2CN2
mp-669421,2.8134,AlTlSiO4
mp-24761,4.6626,RbGaBP2HO9
mp-555850,2.6271,LuSF
mp-19048,4.8845,BaWO4
mp-559243,3.086,Nd2Ta2Cl2O7
mp-685300,1.071,Ti4P8S29
mp-694942,2.2684,BaNa5LiCo5F18
mp-14638,6.1125,Rb2LiGaF6
mp-769261,2.395,Na6Sn2C4SO16
mp-625824,3.4704,Sr(H8O5)2
mp-4035,4.1222,RbReO4
mp-780398,2.6467,Al2(SeO4)3
mp-772082,2.1083,CaLaI5
mp-707874,1.449,Ba7Cu3H17
mp-690516,0.6911,Sr2Co2O5
mp-863358,4.6749,KAl11O17
mp-768536,1.8264,Cs3LaO3
mp-866658,1.6903,H16RhN5(Cl2O)3
mp-760513,1.6458,La2UO6
mp-23850,1.9498,NaH2N
mp-560589,2.1919,NbSe2SN2ClF6
mp-18774,2.4732,NaFeP2O7
mp-768074,3.2939,LiTaWO6
mp-776731,0,Na3Li3Fe2P2(CO7)2
mp-626293,3.1307,Sr(H8O5)2
mp-777664,3.0898,Li2FeF4
mp-1019611,5.6243,Cs2Na2Sr(B3O5)6
mp-769050,0.2303,Li2NbS3
mp-545359,1.5182,KNa2CuO2
mp-674506,4.4197,NdPb7F17
mp-540619,1.2332,K3SnTe3
mp-5977,3.3252,Nd2Zr2O7
mp-554885,4.3725,Ba3Si6N4O9
mp-675680,1.3586,Sr(SbO3)2
mp-28947,2.9784,NaSn2Cl5
mp-850750,1.0905,LiV2P4(HO8)2
mp-558489,4.1308,Ca6Hf19O44
mp-19299,2.3089,CrBO3
mp-29251,2.5167,Te6Br2O11
mp-720825,4.9949,NaPH4O5
mp-38099,1.5162,Rb4Cl2O
mp-758855,3.3925,LiZnBO3
mp-775256,0.3494,Li4MnV3(P2O7)4
mp-707940,4.4925,ZrCd2H12(O3F4)2
mp-684508,2.0472,LiSb2(PO4)3
mp-7505,1.0827,K2P2Pd
mp-277,0.9706,Zr3N4
mp-775823,1.6463,Zr2N2O
mp-776016,1.3316,K2O
mp-34337,4.9341,H4NCl
mp-1595,2.1865,Nb2O5
mp-684815,2.1914,Ba4La2Ti3Nb2O18
mp-616218,1.5384,Cd(In2I3)2
mp-762067,1.1021,Li4Ti3V3(SbO8)2
mp-768954,4.7106,Ba2YCl7
mp-4578,2.327,Sr2GeS4
mp-560450,3.5649,Sb2SNF11
mp-9195,1.4265,BaCuSeF
mp-18388,0.8758,Ga7Te10
mp-567290,1.1195,LaN
mp-18929,2.8551,BaV2O6
mp-11660,1.0251,Hf3N4
mp-24712,5.2946,PH5NO3F
mp-780075,1.9855,Hf2N2O
mp-559521,1.5974,InBi2S4Cl
mp-29662,0.242,TlBiSe2
mp-17114,2.6688,Nd2Sn2O7
mp-690733,6.1018,H2SO4
mp-764465,1.6084,LiFe2(BO3)2
mp-697305,2.3028,K2Na5Al7Si5O24
mp-557233,4.2763,AlTlF4
mp-32616,1.8097,Ga2S3
mp-14260,3.0283,ZnAg(PO3)3
mp-29458,0.9479,Rb3Mo2Cl9
mp-27310,3.5473,Na4Sn3F10
mp-565711,5.3101,P2O2F3
mp-560068,3.7505,Na3NO4
mp-695396,1.6565,Na3SrTiNb3O12
mp-773242,0.8082,Li3V3CoO8
mp-680400,1.6765,K3Ta2S11
mp-780097,0.2654,Fe3(OF2)2
mp-752395,1.9318,Ba2Na2O3
mp-29289,0.9713,BaPt2S3
mp-26725,2.5567,LiSnPO4
mp-756654,2.7582,SbOF
mp-622602,2.6358,NaMoAsO6
mp-28982,1.4051,Pd(PbCl3)2
mp-776667,1.63,Cr3(FeO6)2
mp-638424,4.0328,Sb2S2O9
mp-770504,0.8511,Li24MnCr11O36
mp-13972,2.166,Sm2SeO2
mp-676851,3.0607,KNO3
mp-15520,5.094,TbZn(BO2)5
mp-780342,3.1517,Gd2Zr2O7
mp-756888,4.3104,La2(SiO3)3
mp-866640,3.4054,LiMgH6Ir
mp-555251,5.6355,SiO2
mp-558625,4.1079,SrZr(PO4)2
mp-31005,3.5353,Zn3(PO4)2
mp-755393,2.0515,SrLaI5
mp-555131,4.1445,CsCO2
mp-767539,1.0931,Li6SbS2
mp-12448,0.3961,LiSm2OsO6
mp-770632,1.1252,Li3CrO4
mp-27786,1.1627,SbAs2Cl13
mp-756755,2.1375,Li3Nb3TeO12
mp-5788,0.431,NaUO3
mp-30294,2.4704,Sr2SnS4
mp-6566,2.7868,NaZnAsO4
mp-669364,2.4394,Cs3Re3(SI)4
mp-23751,2.6161,CsMgH3
mp-21459,0.5082,InAgS2
mp-555268,0.2762,K2Sm2IrO7
mp-19488,1.7343,Rb2MnSO4F3
mp-758453,4.6627,Na2P2H4N2O5
mp-23553,2.3809,GeBi2O5
mp-27798,2.8856,B4H5
mp-716723,0.5647,V9O17
mp-779763,3.0138,Tb2Ti2O7
mp-849583,2.2919,YNb2NO5
mp-695843,0.8734,SbH7(Br2O)3
mp-570593,1.1454,RbAg2(AsSe2)3
mp-16742,1.5094,BaAgTeF
mp-570645,3.6461,Ca2Si5N8
mp-780282,2.7302,Cd(BO2)2
mp-7438,0.4468,KZnSb
mp-541339,4.6187,SrH9ClO5
mp-756344,4.323,Li4ZrO4
mp-722780,5.6607,Pr2P3(HO2)5
mp-27278,5.7942,P(HO)4
mp-559065,3.1334,NaI3O8
mp-697683,4.5076,PH8N3O2
mp-29499,0.8759,Re3Te8Cl3
mp-775938,2.084,TiO2
mp-555967,1.8512,TaP4S4Cl5
mp-42264,3.6488,K2MnH4(Cl2O)2
mp-867757,4.2981,RbCaCO3F
mp-3523,3.01,SrGd2O4
mp-754857,1.5249,Nb2Ge2O7
mp-757100,0.714,LiCoS2
mp-10417,2.0361,KSbO2
mp-556819,4.0309,Tl2Cd2(SO4)3
mp-676449,0.8347,Na4Al3Si3NO13
mp-13954,5.8839,Rb2GeF6
mp-707334,3.6051,K7P6H2NO22
mp-998749,3.9117,KCaBr3
mp-557359,3.6651,Cs2Al2Sb2O7
mp-361,0.4997,Cu2O
mp-8217,6.0358,Cs2GeF6
mp-18784,2.9768,DyVO4
mp-8511,7.0881,PF5
mp-38284,1.7118,Ce2Nd2O7
mp-27017,3.4153,LiSnPO4
mp-773910,3.6141,Er2GeO5
mp-28232,2.7179,MgTi2O5
mp-17569,2.3831,SmPtF7
mp-780137,0.7046,Li3Mn4(BO3)4
mp-22880,0.4403,2-Feb
mp-757303,2.5823,Mg17(As3O16)2
mp-556020,7.9151,Li3AlF6
mp-733604,3.0524,Ba2Mg3H10
mp-707337,1.7662,K3H3Pd
mp-556995,3.6443,Nd2O3
mp-767710,2.455,Li2VP2O7
mp-4906,3.2947,Te2SO7
mp-867625,5.7551,ErH(SO4)2
mp-757457,1.6303,LaNb3O9
mp-540862,7.1835,Ba2CaMgAl2F14
mp-560058,2.5912,Li9Ga3P8O29
mp-17850,3.6675,K3NaTh2O6
mp-13055,3.5873,Ba2LaTaO6
mp-866662,4.661,K5La4Si4O16F
mp-560478,4.8154,BaY2Si3O10
mp-13898,5.3058,Cs2NaInF6
mp-754730,3.0182,SrCaI4
mp-16695,4.129,K2ZnP2O7
mp-28630,1.6516,Na3BN2
mp-626094,4.3404,Al(HO)3
mp-770932,2.6387,LiSbO3
mp-29342,1.8419,Ca3PCl3
mp-27987,3.4387,BrF5
mp-558270,2.2857,AlS5N5Cl4
mp-558572,0.4131,Na2UF6
mp-540530,2.8598,Li2Co(PO3)4
mp-4626,4.1712,CaCO3
mp-758179,0.4882,LiCu2PO4
mp-29887,4.8828,Pr(ClO4)3
mp-540636,3.1048,WOF4
mp-755165,4.4324,YScO3
mp-778715,3.0471,LiMn2F5
mp-756131,3.6484,Sr2CaI6
mp-560086,1.9759,Nd4(GeS4)3
mp-976587,1.5454,KP2AuS7
mp-541193,0.9253,Hg7Cl2O3
mp-754840,2.712,TaAsO4
mp-557109,3.725,Na4Zr2(GeO4)3
mp-23093,1.7043,Sr2NdBiO6
mp-560611,1.6603,HoCuS2
mp-19156,1.9174,BaMnO3
mp-540645,0.6193,Hg3(ClO)2
mp-553432,3.4458,TiO2
mp-562613,5.5339,P2O5
mp-556524,0.8703,Nb2Sn2O7
mp-1016884,0.518,CaGeO3
mp-642821,3.1441,K3H5Pt
mp-7575,0.5083,LiZnN
mp-626620,3.3341,RbHO
mp-753445,2.9511,Sb4O5F2
mp-558016,3.7526,CaMgAsO4F
mp-557989,1.1988,K3Sb5O14
mp-541164,1.7852,Hg9(AsO4)4
mp-24112,4.845,Rb2ZnH12(SO7)2
mp-645172,1.3899,CsAs2Se3
mp-24277,3.2754,KGdP2H4O9
mp-16992,0.9287,NaAg3S2
mp-570227,6.6628,BeCl2
mp-557845,2.4773,Na2TiS2O
mp-3668,0.6472,CdGeP2
mp-758836,1.749,Li4Ti3O8
mp-770830,2.7472,HoBiO3
mp-561241,2.4477,USb3O2F17
mp-36864,2.418,Li2TiO3
mp-13190,5.8895,KRb2GaF6
mp-541175,0.2217,Sc7CoI12
mp-26267,0.2531,Li2Cu(PO3)4
mp-19194,3.8394,BaMnP2O7
mp-781622,4.3411,Lu(HO)3
mp-4385,2.6292,CdCO3
mp-672376,0.3183,Re2Cl7O3
mp-684804,2.2095,MgC2S2(OF3)2
mp-768081,2.4381,Na2FePCO7
mp-6800,5.3245,KLiSO4
mp-735531,3.9653,NiH8(ClO2)2
mp-560560,2.5768,CdSiO3
mp-5795,1.9969,CaMg2N2
mp-17718,4.7301,CsKNa2Li12(SiO4)4
mp-24240,4.6697,K3B12H12I
mp-11118,1.9664,CsPrCdSe3
mp-997023,0.8948,CuBrO2
mp-8851,0.3489,BaCuP2O7
mp-553961,3.3047,ScNbO4
mp-707219,5.1135,K2Zr2ZnH12(OF2)6
mp-12670,3.06,Ho2SO2
mp-557917,2.2627,SbI(OF4)2
mp-779228,0.4642,Li4MnNi5O12
mp-13287,0.9837,BaCuTeF
mp-560378,3.8805,Ca3Ta4(O6F)2
mp-764452,0.2335,Li3Co2(SiO4)2
mp-27420,2.7096,NaBiF6
mp-572794,1.8661,ReP(Cl2O)3
mp-31468,1.3786,LiCaN
mp-686540,4.7694,Na3Al2P2O8F3
mp-862787,1.6053,AlInSe3
mp-863731,3.629,InH4NCl4
mp-561197,5.5343,TaF5
mp-777623,0.2327,Na4Mn2C4SO16
mp-770403,0.2125,Li4V2(PO4)3
mp-769268,4.1431,Sr4Ta2O9
mp-541686,2.7147,K3GaS3
mp-541353,1.0323,K2(TcS2)3
mp-10616,0.5951,BaLiAs
mp-774182,2.7214,Li3Cr(PO4)2
mp-770898,1.1178,Ti3Nb2V3O16
mp-996965,0.7882,AgBiO2
mp-4586,2.4411,LiAlTe2
mp-541013,1.0878,TiI4
mp-755954,3.6181,BaSr2I6
mp-772410,2.271,Ti(SO4)2
mp-554699,2.7192,GePbO3
mp-23347,3.6886,Rb4YbI6
mp-558928,2.7339,KrF2
mp-759798,2.9247,Bi7(O2F3)3
mp-23819,5.2559,Al2P2H9NO11
mp-17189,0.3651,K3Ce(PO4)2
mp-541289,1.488,Y2S3
mp-752949,3.3206,BiOF
mp-30100,1.6351,Li2B2Se5
mp-24359,4.1423,CaAs(HO)7
mp-555934,0,VF2
mp-23144,1.4969,TlRe3(Se2Cl)2
mp-850875,1.341,Fe2OF3
mp-19230,3.0597,K3NaCr2O8
mp-6651,3.9245,K2Ta2(OF2)3
mp-766596,3.2753,Ti(SiO3)2
mp-771912,2.2057,Li4Cr2C4SO16
mp-23918,4.7436,NaGaH4
mp-780488,3.0151,LiCrP2H5O9
mp-559773,4.0943,Na4Sr(SiO3)3
mp-779311,2.9798,LiFeBO3
mp-677028,1.3731,RbBiF3
mp-1020118,4.5584,MgSiO3
mp-771055,0.2651,EuZrO3
mp-561549,4.83,K2Be2(Si2O5)3
mp-778824,1.6659,Li4Cr(WO4)3
mp-559764,4.3828,Nd3Si2ClO8
mp-756638,0.8754,NbRhO4
mp-31215,0.2188,AgPdF6
mp-9539,0.2858,EuMgF4
mp-565679,2.253,Hg4Se4O9
mp-15438,4.7558,ZnP4O11
mp-19234,3.9757,Ba2WO3F4
mp-27164,0.9162,FeP4
mp-769333,4.1683,Ca4Ta2O9
mp-13718,2.4792,NaCd4(PO4)3
mp-21496,0.778,LiLa4CuO8
mp-13676,0.7218,TlPO4
mp-557683,2.7859,Zn3(BO3)2
mp-24398,5.4067,AlP(H2O3)2
mp-27396,0.7412,NiCl2
mp-776873,1.7746,Cr2O3
mp-755790,2.7912,HfPbO3
mp-29369,3.595,Sb7F29
mp-553974,0.6143,Ba7Fe6CuF34
mp-5193,1.1848,SrZrS3
mp-560456,1.4253,Hg2Te2O7
mp-571011,1.7663,CsI4
mp-22989,3.7001,NaIO3
mp-568545,1.379,Cd4P2I3
mp-18639,4.5536,La2Si2O7
mp-764013,0.7321,Li5V3CrO8
mp-767088,0.5847,Li3Sb11S18
mp-10289,0.4967,Ca(BC)2
mp-696969,2.3824,Sr(H2N)2
mp-989595,4.8352,CsRb2InF6
mp-743761,2.5651,LiFe3SiPO8
mp-29585,0.6099,K4CdAs2
mp-644431,1.1294,Cd2P3Cl
mp-560387,4.9022,Cs2Al2P2O9
mp-541954,3.6173,Fe2P2H4O9
mp-555740,5.5882,SiO2
mp-29440,1.5657,CuMo3I7
mp-761869,3.0279,Sr3Li3La5O12
mp-16777,5.2801,NaAlP2O7
mp-554129,1.4972,Br3N(O2F5)2
mp-38394,1.556,Ba(AlTe2)2
mp-763198,1.1983,Li2VO2F
mp-766942,1.838,Li2MnF5
mp-559352,0.268,Ba4Na(BiO4)3
mp-709021,3.0706,CaTi2(HO3)2
mp-16863,2.7368,Rb3PS4
mp-754999,3.417,SrLaCl5
mp-560904,1.3199,CdHg2SO6
mp-625788,4.0057,La(HO)3
mp-11742,1.3066,CsNdTe2
mp-721312,4.1589,Na2H2CO4
mp-11121,2.0647,CsTbCdSe3
mp-781681,1.0823,LiMn(PO3)4
mp-752413,3.841,Ca2HfO4
mp-15179,0.7775,Pr2S3
mp-626563,3.5779,Ca(H8O5)2
mp-628305,0.2896,K2MnSnSe4
mp-40374,2.8182,Na6TiMn(SiO3)6
mp-7638,3.3768,LiTa3O8
mp-27194,1.7219,SnI2
mp-775811,1.1139,LiVFeO4
mp-19038,2.8228,SrV2O6
mp-763317,1.9331,LiVGeO5
mp-754300,2.4906,HoBiO3
mp-560119,4.861,TbCl2F
mp-40251,2.9437,BaLaMgTaO6
mp-756299,4.2257,Li4HfO4
mp-752695,3.6748,SrCa2I6
mp-756448,1.9829,LaMgI5
mp-768159,3.0135,LiSnPCO7
mp-17704,4.5969,Tm2SiO5
mp-776466,2.1394,Ba2Ti6N2O11
mp-28716,0.6899,Na2CrCl4
mp-560570,7.0042,Rb2NaAl6F21
mp-755659,4.5221,DyHO2
mp-636380,1.3429,Li(MoO2)2
mp-568224,0.7026,Sm3CuSe6
mp-780098,0.3744,LiCoSnO4
mp-12490,1.5502,CsHoCdTe3
mp-675244,2.0484,Yb(NdS2)2
mp-767407,0.7834,Li5SbS
mp-23018,2.4146,BiSbO4
mp-27336,0.3785,CsCuBr3
mp-672972,2.3453,Sn(PO3)3
mp-706588,3.6925,Na3NdV2O8
mp-743178,3.7971,FeH8(ClO2)2
mp-8723,4.6001,AsF5
mp-695308,2.6115,CaGdTh(PO4)3
mp-675813,2.8666,Sm2Th3O9
mp-686653,3.9503,KMg4Al9(SiO4)9
mp-561185,1.6112,Cs2Sn2Hg3S8
mp-850899,0.4514,Mn3OF8
mp-561176,4.0801,Sb2POF13
mp-555871,1.3192,Na2CuSbS3
mp-6896,4.3414,Rb2NaCo(CN)6
mp-28719,2.5555,Ba(AuF4)2
mp-676646,2.3641,Tb2Zr8O19
mp-561447,4.9997,K3AlB8O15
mp-27147,3.3,Rb3BiBr6
mp-541601,5.3482,KPr(PO3)4
mp-773205,1.018,LiMnB2O5
mp-557744,1.9151,NaUBO5
mp-558772,1.9236,Rb2ZrS4
mp-560045,4.3408,H5CSN2Cl
mp-571189,0.4766,NaHf2CuSe5
mp-30219,4.3612,KGaCl4
mp-18762,1.1127,Na4CoO3
mp-5572,3.004,Ho2Te5O13
mp-755141,4.0623,NaHoO2
mp-779087,2.6472,Li3Mn2Fe(BO3)3
mp-31455,0.2438,VSbRu
mp-8977,2.6232,Ca2PN3
mp-757817,1.1549,Li2Nb(PO4)2
mp-8470,3.1969,NaPrO2
mp-556120,1.9874,RbTl(SO4)2
mp-758953,4.3765,P2H12BrN7
mp-780492,2.4366,Li4VP6(H4O11)2
mp-6361,3.3005,NaSr3NbO6
mp-555076,5.1719,KNaSnF6
mp-765775,1.8559,Li2V2SiGeO10
mp-29314,0.6103,RbVBr3
mp-555077,2.3789,Sn2IF3
mp-721300,5.0985,Ca2B5H2ClO10
mp-13542,0.4017,ZrGeTe4
mp-760411,2.0764,Bi2CO5
mp-21497,3.1328,Pb2SO5
mp-778723,2.7755,Li3MnFe2(BO3)3
mp-776281,1.583,Zr2N2O
mp-570076,0.4272,Tl2CdSnTe4
mp-12787,5.6222,SiO2
mp-8449,3.8479,Rb2Li2SiO4
mp-643069,4.3203,Li2HIO
mp-1008394,2.2452,Cl2
mp-8226,2.3044,ThNF
mp-29988,1.3551,CsPd2Cl5
mp-766328,0.3803,Ag7Sb9O25
mp-8388,0.3795,K2CuF4
mp-780200,3.6175,LiFePH2O5
mp-560019,3.8565,K2Ge3(BO5)2
mp-2667,1.0239,CsAu
mp-13956,0.8682,Ag2PSe3
mp-677335,4.7096,GaPO4
mp-689943,1.2195,CoPO4
mp-23568,2.1924,XeN2(OF4)2
mp-34459,1.9351,Ba(NdS2)2
mp-556986,5.0821,Er2B2Cl2O5
mp-18383,2.3437,K3NbS4
mp-755357,3.7405,NdAsO4
mp-752706,1.9568,CeZr11O24
mp-779257,0.7555,Li3Cu3(PO4)2
mp-542772,2.3395,CsAgCl2
mp-676306,0.3436,Dy7(CuTe4)3
mp-764888,1.3592,Li3Fe4(BO3)4
mp-772060,0.8922,Li3NbFe3O8
mp-773599,0.8922,NaSb3O8
mp-757388,4.9662,PH6NO4
mp-778149,2.3633,Li6Ti3P8O29
mp-760361,2.697,H3NCl
mp-768149,1.9883,DyInO3
mp-24412,2.3494,K2NaAlH6
mp-625548,1.637,Cd(HO)2
mp-20727,1.9283,Sb2PbO6
mp-561166,3.6856,Na2ZrGe2O7
mp-753803,2.3181,Cs2CaO2
mp-569531,1.8372,Rb2CuBr3
mp-19006,1.7244,MnO
mp-1018025,2.1566,LuAgO2
mp-768301,5.6445,Ho2B4O9
mp-768231,4.2308,YHO2
mp-753318,4.5152,DyBO3
mp-779404,2.6702,Li3Cr2(AsO4)3
mp-7129,1.6801,Rb2Ti(CuS2)2
mp-2319,0.7749,P2Os
mp-27140,1.856,K2Sb4O11
mp-505034,1.157,Cs2MnS2
mp-505431,0.6193,K2LiInAs2
mp-675759,1.7111,Tm10Ti6O27
mp-24214,5.7255,KPH3O4F
mp-755798,2.6368,ZrPbO3
mp-23262,2.1773,Bi2O3
mp-19956,2.0755,Ba2InO3F
mp-505772,4.1979,Rb2NaH5(CO4)2
mp-10969,2.3242,CdCN2
mp-1216,3.4728,YbO
mp-600186,2.5604,Cs2MnBr4
mp-773514,1.161,Li2CoO3
mp-19277,1.9138,VSO5
mp-27355,2.8493,Pb2OF2
mp-558362,3.6236,CaMgGeO4
mp-756639,3.6883,Li2NbOF5
mp-772435,2.6472,Li3Al2FeO6
mp-560174,4.8271,NaZn(PO3)3
mp-541081,4.8202,NaMg2H3(SO4)2
mp-850409,1.5207,Fe2OF3
mp-17481,4.2121,Mg4Ta2O9
mp-29892,0.9744,LiSb3O8
mp-2895,4.6395,Mg2SiO4
mp-758916,4.1307,Ga2P3H12(NO4)3
mp-19417,2.0201,TiFeO3
mp-643276,3.16,LiMg2H7Ru
mp-23493,1.4876,Ce(IO3)4
mp-695316,4.1827,Ca2AlH10BrO8
mp-850957,3.0984,Na6Ti2O7
mp-28257,5.2712,SOF2
mp-37263,1.1018,Ca(NdTe2)2
mp-752849,0.9987,Y2Pb2O7
mp-6571,0.4792,BaCuAs2O7
mp-996960,1.4335,AgNO2
mp-574620,2.1117,CsYZnSe3
mp-30252,0.6714,Na10CaSn12
mp-6704,0.5786,BaNd2CuO5
mp-777474,3.226,LiFeF4
mp-766336,3.4085,Ba6Ca11I34
mp-31309,1.4737,RbInSe2
mp-697855,2.7567,Li2Cr3(P2O7)2
mp-6031,3.3852,Li16Nb2N8O
mp-558466,2.4875,AsS(BrF2)3
mp-17213,2.3435,Cs4SnO4
mp-27556,3.319,CsNbO3
mp-557691,3.4153,La2O3
mp-776023,2.5256,CdSiO3
mp-755318,3.6721,ScHO2
mp-989608,3.0865,Cs2NaAsCl6
mp-867689,0.7926,LiCuS
mp-28102,3.2217,Ba3Te4O11
mp-707732,4.5536,Na4ZnP6(HO2)12
mp-720312,4.9795,Na2B5H3O10
mp-690544,0.5743,Ga2FeO4
mp-557260,4.2682,RbSb2F7
mp-770884,3.8079,Li2SnCSO7
mp-998430,1.4536,CsInI3
mp-554142,3.789,Ge(TeO3)2
mp-616564,1.3654,RbPbIO6
mp-3788,3.7469,SrAl4O7
mp-29959,0.8468,TlBSe3
mp-6929,3.323,Ca2As2O7
mp-768092,0,LiVSO4F3
mp-10191,1.4771,Lu2MgSe4
mp-771043,4.0397,Y2Zr2O7
mp-541537,3.492,K2ZnSiO4
mp-976713,4.7024,HoH2ClO2
mp-570084,1.2214,Hg3AsSe4I
mp-570959,0.5863,Dy2CdSe4
mp-554012,4.6494,SClO2F
mp-555462,5.0657,Al(HO)3
mp-560717,0.7414,Ag2CO3
mp-773079,5.186,AlZnH16N(OF)6
mp-23985,3.123,LiH6BrO7
mp-768877,1.7434,Sn2Ge2O7
mp-27386,2.7235,TlHg5Cl11
mp-560767,3.5358,KNaTiO3
mp-707508,2.1252,Na2H5RuN5O12
mp-19446,3.2632,CaMn(SiO3)2
mp-556902,3.7612,KLi4NbO5
mp-29513,3.2665,CsXeF7
mp-24312,4.9945,Sr(H9O5)2
mp-697084,2.7264,HPbIO
mp-773513,3.9179,Er2(WO4)3
mp-561076,1.1965,La3GaS5O
mp-29628,2.0692,Na4SnS4
mp-568546,2.0779,In5Br7
mp-989631,2.0601,LaMoN3
mp-15549,7.2179,K2LiAlF6
mp-779428,3.7468,Sr4HfO6
mp-698654,1.8083,NaMgFe(SO4)3
mp-552857,1.3267,TbBi2IO4
mp-555074,1.5311,Hg3AsS4Br
mp-754060,1.8332,Li7BiO6
mp-743614,2.6265,MoH2Cl2O3
mp-505400,5.7588,BaZr2F10
mp-774387,1.4979,V4OF11
mp-695278,2.9983,Ba3La9Mg7Nb5O36
mp-17998,0.8187,Ca(RhO2)2
mp-11055,0.7472,CsSn
mp-3733,4.4407,BeTl2F4
mp-540627,2.7278,K2Ba(SO)12
mp-698611,2.0996,Bi28Mo2O47
mp-672248,2.6094,TaAsPCl13
mp-554905,4.0895,CaZnSi3O8
mp-9273,1.1054,K3Sb2Au3
mp-722272,5.0185,Li2H12C3SN6O7
mp-777730,4.0047,Li3BiB8O15
mp-773982,1.7749,Mg3Fe4O7
mp-7610,5.1897,Li2CaSiO4
mp-3626,3.4179,SrZrO3
mp-13738,4.316,CsCd(PO3)3
mp-558358,5.8194,Ca(B3O5)2
mp-556841,0.8731,LaTmS3
mp-694876,1.8931,NaSr2LaTi4O12
mp-721896,3.2946,H4CSN2
mp-7181,2.0508,CsSr2Ta3O10
mp-19165,3.6492,BaFe(Si2O5)2
mp-11692,0.8267,Ba3(SiAs2)2
mp-697283,1.9874,H8W(S2N)2
mp-27407,3.6699,Ca12Be17O29
mp-559939,5.4349,Ba(PO3)2
mp-16970,4.4261,Na2Si2O5
mp-9274,1.2215,Rb3Sb2Au3
mp-558523,3.5308,PAuClF3
mp-554805,3.4292,Sr3Se3(ClO4)2
mp-769578,0.2295,Li4V2C4SO16
mp-850359,1.4185,Li5Fe5(CoO6)2
mp-18199,1.2878,Sr3TaAs3O
mp-781504,2.5196,Li2CrP2O7
mp-580631,5.0878,Cs2KTbCl6
mp-764354,1.652,LiMnF5
mp-510529,3.2207,LiCr(SiO3)2
mp-779077,0.8887,Li24TiCr11O36
mp-561256,3.8917,Ba2TiOF6
mp-556878,3.3391,BiPPbO5
mp-779522,5.3596,Ho2P4O13
mp-776593,4.4787,LuScO3
mp-28127,1.7624,Na2S5
mp-569405,3.6983,B3H5
mp-549158,0.2439,InCuO2
mp-23193,5.0442,KCl
mp-768234,4.0102,La2HfO5
mp-7895,1.7601,Rb2O2
mp-743771,3.4528,Ca8V7ZnBiO28
mp-604245,6.5456,BeH8(NF2)2
mp-22003,4.0245,NaN3
mp-753183,5.3461,CaH4SO6
mp-6340,5.3684,LiAl(SiO3)2
mp-23947,2.6053,Cs3MgH5
mp-989551,4.0416,LiTl2InF6
mp-23505,1.9851,K2TeBr6
mp-554320,0.7153,P2Pd2O7
mp-555259,1.9725,UTe2PbO8
mp-27126,1.9223,Na2Mn3Cl8
mp-705676,0.5684,K4MoO8
mp-554134,1.5862,SnS
mp-601867,0.8692,Ba3(SnP2)2
mp-690711,4.2692,TlP(HO2)2
mp-35327,5.0623,Al(CN)3
mp-19482,2.573,Na2V(PO4)2
mp-27180,2.6373,NdSBr
mp-1020624,5.359,NaBe(BO2)3
mp-769368,2.0456,Rb4SnO3
mp-560104,3.7969,LiTaGeO5
mp-755705,2.3508,SrLaI5
mp-637206,2.5425,AlBiSeCl4
mp-557894,5.7183,SiO2
mp-31135,0.8866,Si19Te8
mp-771853,0.7108,Mn3Nb2Cr3O16
mp-28556,0.7792,Na3CuO3
mp-754846,2.0783,Ce2Nd2O7
mp-36165,1.4874,Na10Zn4O9
mp-775492,0.9618,Li2MnV3O8
mp-560404,3.4371,InHSeO4
mp-626014,0.9675,H5IO6