id,formation_energy_per_atom,pretty_formula
mp-981378,0.02492527,Sr3Yb
mp-977547,-0.432357696,MgZnRh2
mp-978554,0.461804744,SmRe3
mp-1019805,-2.087549414,KB(S2O7)2
mp-770873,-3.296178104,Ho2WO6
mp-13841,-1.721976031,IrF4
mp-588,-2.94898191,GaF3
mp-629690,-0.813501068,Bi2(PbS2)3
mp-20255,-0.540029345,TiCuSi
mp-16433,-2.786775119,Ca2Ga2O5
mp-752415,-3.128218787,NbO2F
mp-699482,-1.493976074,Na2H20CO13
mp-559940,-1.175921237,AlS2NCl6
mp-782669,-1.90015869,Mn4O7F
mp-17777,-2.874807333,Sr5As3O12F
mp-556906,-3.30109361,Na3LiBe2F8
mp-27852,-0.570684614,Hg3(TeCl)2
mp-774416,-2.769513916,Ti3Cr(PO4)6
mp-571149,-0.009870737,Tb2Fe17
mp-22895,-0.154563475,CuI
mp-4826,-2.139432188,CaCuO2
mp-10116,-0.498017898,UB2Ir3
mp-29619,-0.752644328,Sr2Bi
mp-767442,-2.136286451,Fe3CuNi2(PO4)6
mp-510752,-0.786177309,CuO
mp-975786,-0.199511343,Li2TmTl
mp-770470,-1.591779564,Li5Cu5(SnO6)2
mp-29492,-1.341570858,S2I2O11
mp-559452,-2.578084976,Na5Li(PO4)2
mp-540885,-1.334841333,Na3PH16(SO2)4
mp-764535,-2.35323932,Li3Fe8(BO3)8
mp-14116,-0.978468884,CuRhO2
mp-28857,-1.071483063,Pb(IO3)2
mp-558340,-3.248164464,Nd5As2ClO10
mp-1009696,0.557667076,RhC
mp-2266,-0.421472713,YbAg
mp-540995,-3.379963389,Rb5Nb3OF18
mp-680158,-2.4011137,K2Ti(GeO3)3
mp-556246,-2.033039136,La3Si2S8Cl
mp-6065,-2.63859374,Sr2GaSbO6
mp-867322,-1.896931427,Pr3SiAgS7
mp-675978,-2.784418381,K2Bi3F11
mp-571474,-0.743528699,Sm4Sn3
mp-752525,-2.124008952,LiAgF2
mp-23260,-1.799355584,BaI2
mp-761337,-2.5993395,SrCrO3
mp-559307,-0.349807597,Cu3P4(SI)3
mp-570430,-0.210480983,TaCo2
mp-249,-0.403806655,HfAl
mp-761401,-2.505700537,LiCrPO4
mp-626680,-1.513193023,Fe(HO)2
mp-18365,-0.403343129,RbCuSe4
mp-556500,-1.08319095,NClOF4
mp-21575,-1.556054897,Pr3InSe6
mp-755020,-1.581599062,SrCa2I6
mp-1373,-0.257989619,Nb3Ge
mp-675678,-1.398786668,Nd4Ag2Se7
mp-977409,-0.255732326,NbTc2Ge
mp-8911,-0.330021014,CuAgS
mp-776167,-3.625748284,CeAlO3
mp-21478,-0.47539134,U(CuP)2
mp-41734,-3.049339262,Na8Al6Si6SO28
mp-777053,-2.063816169,Li4Mn3Fe2Sn3O16
mp-972924,-0.065363011,La(Mg4Al3)4
mp-5807,-0.705708395,Mn(SbS2)2
mp-622558,-2.545912918,DyFeGe2O7
mp-558607,-2.142143764,K3BSb4O13
mp-764508,-2.36380181,LiFe2(BO3)2
mp-3772,-0.623596726,Cd(GaSe2)2
mp-772624,-1.431892543,Al2CO
mp-720570,-1.628537663,Na2PH11O8
mp-777580,-2.270384804,V5O12
mp-510278,-3.635813128,GdTiO3
mp-10068,-1.441425208,Ce2MnN3
mp-754358,-1.36685037,ZnSeO4
mp-6761,-3.042791367,NaTi2(PO4)3
mp-772019,-2.847320619,Ba5La2Cl16
mp-555598,-2.929803571,KGd(PO3)4
mp-684066,-2.726738854,Li2Ti(PO3)5
mp-29398,-1.262441968,Cs2HfI6
mp-972062,-0.55344306,YbTmHg2
mp-12520,-0.418533955,SrNi2Ge
mp-19304,-2.593620342,K2MnSO4F3
mp-18633,-0.443132927,K8SnSb4
mp-680167,-1.392565949,LiMo6Cl13
mp-10266,0.015643511,ZnFe3C
mp-1728,-0.776109342,LuRh2
mp-772628,-2.64191899,Li3V(BO3)2
mp-13922,-0.488578025,Ba2Ge
mp-644302,-1.49191144,NaHSeO4
mp-861850,-1.226722323,Li3CuNi3O8
mp-675563,-3.693802774,LaZr9O20
mp-12684,-0.411755135,LaAl
mp-757595,-1.271965945,H3SNO3
mp-7176,-1.802002294,RbLaSe2
mp-510315,-0.771333464,Ce(GeIr)2
mp-36088,-2.522609212,La5SmS8
mp-770612,-1.679307513,Li4CrH8SO7
mp-19879,-0.481462163,PPd3
mp-998758,-1.857833448,TlHgF3
mp-14636,-1.339275294,Rb2NbAgS4
mp-760382,-4.03160633,ThUO4
mp-21915,-0.346658864,Ce3Co4Sn13
mp-11541,-0.534224783,ZrOs
mp-650024,-2.08165361,RbLiBi2(MoO4)4
mp-530695,-4.123820167,GdZr3F15
mp-571397,-2.26201579,Cs3Tb10C4Cl21
mp-19134,-2.889999519,CaCrP2O7
mp-773505,-2.890925475,Al2CrO5
mp-559093,-0.769790364,Tl2BiP2S7
mp-754041,-3.958144591,Gd2HfO5
mp-8289,-2.774489645,SnF3
mp-975530,0.68198995,RbAl
mp-865648,-0.552703851,Yb2CdPb
mp-1016852,-2.363220357,BaMnO3
mp-2348,-0.417937957,Zr2Au
mp-779318,-2.291484671,LiCr2P3O13
mp-612918,-0.784221188,Dy3Ge4
mp-777356,-2.015865504,Li2Bi2(SO4)3
mp-756389,-3.041246341,Lu2TeO6
mp-976679,-0.368203885,HoSb3
mp-769482,-2.260047969,Na3Mn2P2(CO7)2
mp-13200,-0.56001592,LuCuSn
mp-31492,-0.612082534,CeGaNi
mp-685318,-1.680131061,Bi15AsO25
mp-30373,-0.254721045,RbAu
mp-763099,-2.619820409,Li2VO2F
mp-567997,-0.699217354,Sm3(CoGe2)2
mp-553975,-1.646028811,K3Na2InO4
mp-10328,-1.856345023,LaCrS3
mp-8872,-2.255909187,RbNa2BO3
mp-768453,-2.821878563,Lu2(SO4)3
mp-976313,-2.324533522,K3V(SO5)2
mp-12012,-1.145336889,KPrGeSe4
mp-777529,-3.132710392,Li2VF6
mp-850,-0.521069692,ScNi2
mp-8864,-0.644854458,Li(Co3P2)2
mp-766955,-1.828847688,K6Na2MnH24(WO6)6
mp-560314,-1.758048864,In2H10S3O17
mp-698666,-2.195062324,Li2MoO3
mp-775831,-2.299917399,TiMn2O6
mp-572551,-2.250701146,Cs2U(Br2O)2
mp-554119,-0.910313469,KSnAsS5
mp-979981,-0.463713927,AcYbGa2
mp-626227,-1.496254124,Ca(H8O5)2
mp-753532,-3.051112568,Nb2O3F2
mp-771092,-2.553919709,Li6Mn3Cr(PO4)6
mp-9468,-3.300292942,KCa9Mg(PO4)7
mp-863377,-2.505683202,Li2SnP2O7
mp-715517,-2.439244161,VO2
mp-1018081,0.046230922,CrFe3
mp-22167,-0.410311728,Zr6Ga2Co
mp-18779,-2.006828496,Na2CrO4
mp-561407,-1.370342961,RbGaS2
mp-770704,-2.564594299,Li2AlFeO4
mp-542374,-0.292835352,KSn
mp-542737,-2.511773652,TiZn2O4
mp-754199,-1.715396811,BaSrI4
mp-27533,-0.255407999,P2Pd15
mp-675879,-0.218986122,Ag3SI
mp-767737,-1.245139205,Co9Cu3O16
mp-975512,0.185506784,InSb3
mp-862924,-0.750410213,PmInPd2
mp-782648,-2.523859853,LiMn(PO3)4
mp-743528,-0.929719778,CrH14N4Cl3O
mp-19393,-2.624810082,NdMn2O5
mp-556078,-2.203646779,MgAs2(XeF8)2
mp-568851,-0.718739149,LuNiGe
mp-7507,-0.001176967,Sr3Li2
mp-37449,-2.208908053,Nd5AgS8
mp-849482,-2.580360965,Mn12O7F17
mp-504662,-1.609324273,SbClO
mp-758863,-0.594380112,Sn2N2O
mp-31258,-0.148048649,Pr2MoC2
mp-776752,-2.463024523,Li4Mn2Fe3Sb(PO4)6
mp-850556,-3.296807766,La3Nb8O24
mp-9711,-1.352384267,Ba2Si5N8
mp-862882,-0.812210803,CaPmAu2
mp-16831,-3.122520355,CaTi4(PO4)6
mp-768409,-3.649132183,TbTiO3
mp-9439,-0.725325362,YbCuSb
mp-6533,-1.458983883,NaLu(Pd3O4)2
mp-4883,-0.814939963,Ba(FeP)2
mp-22850,-0.982917457,RuCl3
mp-568005,-2.032446005,CsYbBr3
mp-19989,-0.299686027,Ce2In8Co
mp-569249,-0.027143127,Ta3Au
mp-722310,-1.800780541,KErHSe2O9
mp-865252,-0.846585711,TmSnRh2
mp-28626,-3.121074003,LaSO
mp-861980,-0.264956422,PaGaTc2
mp-766268,-1.858619662,Bi12O16F5
mp-559934,-2.563320196,LiZnPO4
mp-574272,-0.530528618,Ca5Pb3
mp-555050,-3.225485471,BaNb2O6
mp-551905,-1.552514854,OsO4
mp-769153,-2.453203015,Li2SbSO4F3
mp-646586,-0.203823056,Sm6InCo2
mp-624769,-2.425215673,P2WO8
mp-562366,-2.888191846,Cs2U3(TeO7)2
mp-744472,-0.931134616,CrH14N4Cl3O
mp-6963,-0.78652403,Ba(SbPd)2
mp-558309,-2.960908453,K4SnSb2F14
mp-10409,-1.555338433,Ba4Nd2Cd3Se10
mp-11584,-0.276280011,Lu8Te
mp-7652,-1.496625829,Na5TlO4
mp-772668,-2.440005701,Li3MnSiCO7
mp-15277,-0.540428288,La5Cu19P12
mp-989584,-1.349041958,Ca6Sn2NO
mp-779424,-3.823486836,Gd3TaO7
mp-762089,-1.290144456,Na4SnH32(SeO4)4
mp-555236,-2.224977218,Tm2Te5O13
mp-714904,-1.367127661,FeO2
mp-557470,-2.592391662,K2Sb2S(O2F3)2
mp-770487,-2.57685993,Li3V3(BO5)2
mp-755794,-2.254302185,Rb3LuO3
mp-864674,-0.379520694,Ho2AlZn
mp-20520,-0.562975724,U3Te4
mp-777461,-2.318743576,Li4V3Cr2Sn3O16
mp-625145,-1.280593284,H7ClO3
mp-558294,-2.868247341,Li3TaO4
mp-8429,-1.546299346,K4IrO4
mp-865612,-0.184427172,LiCd3
mp-18782,-2.062664684,LiFeO2
mp-3316,-3.607646935,BaCeO3
mp-756135,-3.740759608,Tb3NbO7
mp-12047,-1.72321869,K3Na(RuO4)2
mp-17265,-2.408429196,Sr2CuGe2O7
mp-675767,-2.589818542,La2YbS4
mp-9741,-1.553051995,Na3Cd2IrO6
mp-560786,-2.239200548,Nd10S19
mp-735514,-0.840413376,MnH18C4N8(ClO)4
mp-984350,-0.814565747,Dy3Sb4Au3
mp-1008483,0.943561816,CdN
mp-32939,-1.675639131,Fe7O8
mp-757,-0.715318677,Li3As
mp-5440,-3.130702203,AlPO4
mp-4555,-2.253695305,Ca(AsO3)2
mp-780313,-1.876068482,LiVP3(H7O8)2
mp-4678,-1.171814743,Zr2AlN
mp-696941,-1.647274045,K2H2RuO5
mp-540391,-2.139173055,CoPO4
mp-607848,-0.28818865,La(In2Ni)3
mp-698358,-0.401068381,NiH10C4(SN4)2
mp-653930,-1.566200766,CuAs2Pb8Cl5O9
mp-216,-3.989221956,Sc2O3
mp-695984,-2.298820384,BaRe2H2O9
mp-557564,-3.481947007,CeNbO4
mp-1016875,-0.871106698,CdRhO3
mp-19120,-2.216506905,MgCrO4
mp-504948,-2.895004616,LiScGeO4
mp-557266,-0.058498458,HgO2
mp-18451,-4.326941471,KEr3F10
mp-569832,-0.462076405,Nd(Al4Co)2
mp-545847,-2.376026313,LuBi2BrO4
mp-29095,-1.620987039,H4SO5
mp-1564,-0.10262121,NaTl
mp-12046,-1.715189102,Rb3Na(RuO4)2
mp-776041,-2.273840976,V2O5
mp-292,-0.456519256,V3As
mp-17660,-1.537349715,SrPrCuSe3
mp-17756,-0.71625489,RbAg2SbS4
mp-616204,-1.45916749,Ga3Cl7
mp-667342,-1.61117191,Bi12PbO20
mp-675621,-0.530755708,Li5SnP3
mp-18055,-0.851386333,La2Ge5Rh3
mp-3598,-2.181014314,BaRuO3
mp-20410,-0.446037771,Ho(BC)2
mp-705336,-2.395465315,Li2Co3(P2O7)2
mp-760515,-2.947690187,Ba3Sr4O7
mp-5033,-2.959132322,Tl2SiF6
mp-12054,-0.434156804,Cr2B3
mp-677131,-3.869536563,Ce9YO20
mp-755413,-1.360458293,Na2O
mp-12814,-0.892062856,Ba3SbN
mp-809,-0.14015403,ThCo5
mp-974395,-0.013004272,Pt3Rh
mp-753495,-1.821423209,Sb3O7F
mp-570965,-1.585198907,Pr6CoBr10
mp-735519,-2.960336155,KHoCoSi2O7
mp-562001,-0.799956177,Cs11O3
mp-721943,-1.863455347,CuSiH12(OF)6
mp-721255,-2.649041247,Li10Si(PO6)2
mp-21724,-2.399726502,ZnSiPbO4
mp-19880,-0.174414158,FeTe2
mp-757070,-1.632156976,BaCaI4
mp-771515,-2.329052769,Li6V3W3O16
mp-775297,-2.012722247,FeCu3(PO4)4
mp-766923,-2.845784966,LiVSiO4
mp-550553,-1.613939061,CdBiClO2
mp-20801,-0.448563467,LiIn2Pd
mp-6203,-1.962286621,CaCuAs2O7
mp-555661,-3.249553805,Ca9In(PO4)7
mp-567330,-2.02729775,TiCl3
mp-760980,-0.401279615,FeCu5S4
mp-762274,-1.91687984,LiCu4(PO4)3
mp-676813,-0.483340064,RbAg4I5
mp-972021,-2.138384692,SrInO3
mp-505322,-0.47220784,CsTa(CuTe2)2
mp-15317,-3.607201566,Rb2NaHoF6
mp-21906,-0.265072781,U20Si16C3
mp-2713,-0.907431247,ErIr
mp-23764,-2.640379872,Mg3Si2H4O9
mp-996161,-0.519304262,Nb3AlC2
mp-867325,-0.379269018,Pu2HgSb
mp-1019532,-3.44346933,BaAl4O7
mp-23630,-2.061785965,NbBi4ClO8
mp-2656,-2.399045733,Nd3S4
mp-777942,-0.377970858,Ba14Na8CaN6
mp-645,-1.613741086,TbP
mp-647489,-0.590472406,CdI2
mp-15349,-2.338759526,Li2GeO3
mp-768827,-1.66257272,BaSrI4
mp-765341,-2.188477377,LiCuF4
mp-764733,-1.480648716,Li5Ni5O9F
mp-8216,-3.542918979,LaBO3
mp-567915,-0.640575665,La3MnBi5
mp-754044,-3.821417416,Ho2TiO5
mp-560545,-2.052485789,Na2Ca(AsO3)4
mp-557296,-2.587419035,Sr2MnSbO6
mp-1020621,-2.907102301,RbBe2B3O7
mp-625402,-2.302825951,Sm(HO)3
mp-866165,-0.689623848,YMgRh2
mp-1250,-0.325454196,Lu2In
mp-626241,-1.456502522,Sr(H8O5)2
mp-1410,-1.891831151,DyN
mp-662599,-0.111778825,Ag3AsSe3
mp-12463,-0.318521029,Ni(TePd)2
mp-4699,-3.085294533,NaTaO3
mp-8121,-0.641907103,SmCuSi
mp-14037,-2.230301074,NaTl2RhF6
mp-979137,-0.450127801,SrGaSiH
mp-779096,-3.902205998,Tm3TaO7
mp-974906,0.274400136,MnSn3
mp-561533,-2.220874898,SbOF
mp-754322,-2.202085541,Sr2CuO4
mp-6580,-2.59235623,Ba3NdRu2O9
mp-9309,-3.035876685,CsTa(BO3)2
mp-766984,-2.894778963,Li2Fe(Si2O5)3
mp-770744,-2.331102257,Li4Nb2Fe3Sn3O16
mp-997569,0.057723459,AlP
mp-560326,-2.830780338,Ba5B3CNO9
mp-8702,-2.288708232,LiGaGeO4
mp-556074,-1.341036128,K2Cu3(SeO3)4
mp-8133,-3.523246954,LaPO4
mp-9406,-3.501758217,Li2La2Ti3O10
mp-696138,-1.280354138,Li10Ge(PS6)2
mp-567204,-0.160650361,Ho8Mg12Zn61
mp-510002,-1.694277531,K2Sn(HO)6
mp-15998,-1.163789088,RbV(CuS2)2
mp-22002,-0.33549817,Sm3Co6Sn5
mp-862966,-0.260299835,PmTlAg2
mp-744637,-2.850423638,Ba2V3P6HO22
mp-775007,-2.452603609,SbP6(WO8)3
mp-735483,-1.756949926,Na3LiMo2(H6O7)2
mp-754517,-1.637287727,SrCa2I6
mp-423,-0.541375088,GePd2
mp-740759,-0.58811394,Yb19(Mg4H27)2
mp-15813,-0.07548981,Mn3W3C
mp-3871,-0.720730579,Ti2SnC
mp-773178,-2.127316563,Na2CrCSO7
mp-572634,-1.998202315,Al2AgCl5O
mp-1019256,-0.330943181,SmTlZn
mp-973623,0.257876283,GeBi3
mp-780230,-2.547505516,Hf2N2O
mp-27796,-0.427523952,Li4H5Rh
mp-972827,-1.834793803,SiBiO3
mp-20790,-0.80514328,InPS4
mp-29396,-0.994245482,Cu2PbO2
mp-18350,-0.66772157,V3P
mp-675740,-1.430059084,Ca(CeTe2)2
mp-19395,-1.81395748,MnO2
mp-849761,-1.661055719,GaBi25O39
mp-767723,-3.031425235,LiV2F9
mp-12295,-3.394127242,Sr3La2(BO3)4
mp-572763,-1.058746007,TaP4(SCl)5
mp-582146,-1.766856559,CsNb4Cl11
mp-17924,-2.456117324,ZnP2PbO7
mp-28996,-0.922324798,Ag4Bi2O5
mp-504941,-0.749398086,Sc2V3Si4
mp-560152,-3.191512315,SiO2
mp-777896,-2.259442097,Li2V3NiO8
mp-753818,-1.050108489,Li3(FeS2)2
mp-1756,-0.485923961,ThB6
mp-25372,-1.385996477,LiCuO2
mp-505522,-0.74803078,Fe(NiS2)2
mp-27311,-2.166000168,LaCO
mp-2920,-3.744149358,LaAlO3
mp-33797,-1.766430108,Sr(RuO3)2
mp-22023,-1.845467518,Pb3SO6
mp-631463,0.684007968,CuTcBi
mp-10469,-0.799516793,NbSiPt
mp-581991,0.093588138,Nb2P
mp-553956,-2.323800541,P2Pb3O8
mp-973994,0.286342253,NpPa3
mp-8111,-4.275896357,LaOF
mp-4893,-0.773818805,Hf2SnC
mp-782631,-1.99088627,Li2Cr(FeO3)2
mp-34489,-0.758205995,LiInSe2
mp-628643,-0.643839874,CuAsPbS3
mp-6102,-0.451347467,NdNi2B2C
mp-776610,-1.644636162,Ba6YI15
mp-560366,-0.813179572,XeF6
mp-764057,-2.437273888,VO2F
mp-677454,-2.309829964,P6(Pb2O5)5
mp-554583,-2.85535299,DyP5O14
mp-202,-0.261716916,TaTe4
mp-12072,-0.275546302,UAu2
mp-759405,-2.46743325,Bi3O2F5
mp-1019259,-0.555083602,SrSnHg
mp-865662,-0.522619189,Yb2AgPb
mp-26855,-2.560035352,Li2Sn(PO3)4
mp-772155,-1.967081066,Li2BiAsCO7
mp-770745,-1.85019474,Li2Cr2O7
mp-619067,-1.51099053,U3Cu2S7
mp-756510,-2.401715517,K4TiO4
mp-18279,-0.538016714,Zr2CuGe4
mp-540962,-2.953830768,KLa(PO3)4
mp-707307,-2.487684202,Nd2P3(HO2)5
mp-554472,-1.51037799,PNClF
mp-5784,-2.150699328,Na2GeO3
mp-675219,-2.418441779,Ba9(LaS6)2
mp-24136,-0.459367745,Cs(BH)6
mp-631487,0.663745541,LaBeOs2
mp-30522,-0.618567973,Nd5Ir3
mp-13572,-1.147579355,ScSiPt2
mp-31096,-0.360656126,Li3AlH6
mp-15659,-0.368322617,Sb2Pt3
mp-16534,-2.054412502,BaSm2FeS5
mp-768991,-1.9877455,Li4Bi2C4SO16
mp-9778,-0.345344564,K2AgP
mp-561318,-3.253424905,Ba2AlCu2F11
mp-865807,-0.619566883,Ti2MoIr
mp-1866,-0.98126762,KO2
mp-555458,-1.619632066,Ba4Fe2S4I5
mp-695202,-3.260351329,Mg4Al9Cu(SiO4)9
mp-1974,-0.628178242,CeB4
mp-605108,-2.010178695,Al2P3H11O13
mp-540586,-1.51549589,Tl2SnO3
mp-4690,-1.76734095,K3TaO8
mp-673096,-2.538769837,Li3Sn(PO3)6
mp-27229,-1.891232909,Sb6S2O15
mp-6702,-2.605191683,Na7In4P9O32
mp-777679,-2.861948502,LiFeF4
mp-776860,-1.942446349,Li4Fe3Co3(WO8)2
mp-997159,-1.621420561,CrAuO2
mp-568083,-0.44285357,LaNi2B2C
mp-18561,-0.526364889,Ga2AsRh5
mp-8996,-0.469365759,Sc3RuC4
mp-567763,-0.204578976,Pr(C2N3)3
mp-6492,-3.099408922,Ba2YSbO6
mp-745164,-2.339150289,FeP3(HO5)2
mp-1299,-0.722451498,SiPt2
mp-2399,-0.50860669,YHg
mp-570404,-0.255182401,Ho4CdCo
mp-2379,-0.468171583,CoSi2
mp-1018083,-0.138447956,CrCdTe2
mp-973143,-0.285775065,ScZn3
mp-996988,-1.074818614,LiAgO2
mp-2424,-0.306240119,LaZn5
mp-21424,-0.790371166,TbNiGe
mp-774708,-0.82169354,ZnH12C3S4(N3O2)2
mp-752512,-1.840675548,Li6CuO4
mp-5292,-0.644090911,Ca(SiNi)2
mp-864975,-0.80908968,Mg2PdPt
mp-505771,-1.81197669,K2NaH5(CO4)2
mp-851090,-2.789707023,SrLaCl5
mp-17816,-1.889787643,Na5AsO5
mp-11,0,As
mp-34296,-1.847486257,Zn(FeO2)2
mp-866096,-0.324887644,HfZnCo2
mp-541557,-0.690921743,Lu2Fe3Si5
mp-30925,-1.527822924,La(NO2)3
mp-16718,-0.268983719,Al6Tc
mp-11958,-0.670233282,CaSn2Pd
mp-18090,-1.550217188,Ba3TaAs3O
mp-650841,-0.770220248,GaBr2
mp-571193,-0.359632608,MnP4
mp-21155,-0.49139986,DyMnGe
mp-865218,-3.658799745,YbTiO3
mp-1019786,-2.667772262,K3Zn(BO2)5
mp-1019733,-1.425124882,Eu(NO3)3
mp-779913,-2.539194371,Fe3OF5
mp-600029,-3.277893266,SiO2
mp-999193,-0.838036819,SmAu
mp-8727,-2.482387098,Ba4PtO6
mp-560000,-3.614258498,Ce2Ti2SiO9
mp-22292,-0.703369508,EuCuSb
mp-640712,-0.122681414,Rb8In11
mp-19271,-2.540094431,BaCrO3
mp-780303,-2.046997069,Li4Fe3SbO8
mp-768972,-2.787486997,Ba3Y2Cl12
mp-998918,-0.165213729,TlFeSe2
mp-557810,-2.404974192,BaH6F8
mp-560144,-1.063379445,K2RuBr5NO
mp-697075,-0.763405535,Ti3Zn3N
mp-757785,-1.61796667,Bi12PbO19
mp-981530,-0.813061546,YbPrPd2
mp-552098,-1.268539717,Bi2SeO2
mp-381,-0.638065753,SiRu
mp-758886,-2.139130946,LiCuPO4
mp-13005,-0.457894943,LaCrGe3
mp-779287,-3.030434644,La2HgO4
mp-540626,-1.173040776,NiH8(IO5)2
mp-769307,-3.503387068,Ca4Ta2O9
mp-18864,-2.24875123,Rb2WO4
mp-945779,-0.886534726,DyCuTe2
mp-573069,-1.874883268,Ba2CaTl2(CuO4)2
mp-2573,-0.091879867,NpAl3
mp-568115,-0.812973032,Zr5Si3
mp-7295,-1.173854689,RbCr5S8
mp-867153,-2.270130469,Rb2MgP4(HO2)8
mp-560806,-0.962100789,Zn2In2S5
mp-628637,-1.164996409,Cu3BiSe2BrO8
mp-28277,-1.48105501,K2PrI5
mp-684496,-2.266444331,SbP2O7
mp-971647,-1.935475608,NaMnO2
mp-867241,-0.660022562,Ac2GePd
mp-23457,-0.419057761,PBr2N
mp-558958,-1.358661083,H2O
mp-571634,-0.517165434,Yb5Pb3
mp-559833,-3.075285745,Na2YC(OF)3
mp-555267,-0.446522779,CuHgSBr
mp-569582,-0.119568041,La4MgCo
mp-754085,-1.091372967,Li2BiS2
mp-675230,-2.181738529,NaLaS2
mp-40668,-2.341147162,NaCoP2HO7
mp-867278,-0.14500259,DyPaTc2
mp-743676,-1.196339967,VH10S2(NO4)2
mp-974386,0.086210728,Rh3F
mp-1008635,0.547075126,WC
mp-21364,-0.812761296,HoCuAs2
mp-1016823,-2.480762836,BaGeO3
mp-555438,-4.104505418,Ba3AlF9
mp-867801,-0.553845067,La2AgSn
mp-1019777,-3.170608976,K2La2B2O7
mp-755756,-3.221537876,Y2TeO2
mp-22600,-1.282028335,Sc3P2
mp-32028,-2.409998221,Mn(PO3)4
mp-555069,-1.840555554,Tb2SnS5
mp-722766,-1.317802343,CaHgH16(BrO2)4
mp-758945,-1.753452214,Li5CuHO4
mp-850930,-3.069912893,Li3MnF5
mp-555958,-2.877130431,Ba2Li3(PO3)7
mp-19207,-2.54732352,Sr2CoWO6
mp-760136,-2.403203973,Li4TiCu3(PO4)4
mp-8424,-2.227343694,Li8PrO6
mp-722188,-2.539887571,NaCa4Si8H16O28F
mp-27298,-0.80098848,Ca11Bi10
mp-29726,-1.032746455,LaSi2Rh3
mp-1986,-1.793698857,ZnO
mp-545603,-2.462456034,Ba2BiSbO6
mp-560005,-1.093427452,TlRe3(S2Cl)2
mp-29630,-0.320455924,Li7Ge2
mp-559385,-3.781022976,SrHo2O4
mp-867474,-0.486054164,Li2EuSn
mp-628726,-2.248301626,Sr(AlCl4)2
mp-762694,-2.529898478,Li3Ti2Fe3O10
mp-28229,-0.163213399,Bi4Te3
mp-20450,-0.655364349,YCrB4
mp-796,-0.163106711,Nb3Al
mp-770811,-2.482905159,Si2As2O7
mp-23858,-0.924313633,H8PtN2(ClO)2
mp-622209,-0.401824725,Al3Ni
mp-1657,-0.661718643,UAs2
mp-15391,-1.89057972,Na4TeO5
mp-766967,-2.898123828,Li2Mn3(Si3O8)2
mp-554882,-2.009295154,DyCuTe2ClO6
mp-2306,-0.131540389,LaMg3
mp-30203,-0.599209645,Sc6AgTe2
mp-865828,-0.351440223,YbPaRu2
mp-767688,-2.62019665,NaNdPCO7
mp-510370,-3.059577429,CsAlCuF6
mp-531175,-2.020632407,Cd(GaO2)2
mp-777779,-1.848383219,Li4Mn(TeO4)3
mp-977384,-0.643674747,ZnSiRh2
mp-755311,-3.257562888,NaLuO2
mp-12899,-0.828344347,HoSi
mp-865341,-0.28443018,Tm2InOs
mp-781961,-2.159183134,LiCrPH2O5
mp-680683,-2.848409755,CsB9O14
mp-29320,-1.430853322,Te3SeO8
mp-23494,-1.827462046,Ti(Bi3O5)4
mp-604008,-0.604844543,CeAlRu
mp-30725,-0.402318617,YHg2
mp-29839,-1.597040002,Bi2SeO5
mp-686748,-3.077757292,Ca2Al2Si(HO4)2
mp-770879,-2.322135021,Fe5Co(PO4)6
mp-625175,-0.943893249,H3ClO5
mp-28865,-0.823819457,Os(SCl6)2
mp-763328,-2.016251428,Co4OF11
mp-18749,-1.739977118,NiSO4
mp-23485,-0.30283041,Ag2HgI4
mp-662815,-1.015144636,Mn(GaS2)2
mp-7303,-0.265944074,ErCd3
mp-989606,-0.751282379,CaReN3
mp-1001012,-1.96874912,Sc2ZnS4
mp-770382,-2.575145519,Li3V3(BO5)2
mp-753708,-3.442221866,TiOF
mp-570254,-0.473952954,ThBC
mp-1019806,-2.971796469,KMg6P7O24
mp-559961,-1.250783913,Tl2SeO4
mp-867422,-0.630116032,AcPbAu2
mp-680674,-1.26577315,Cs3Bi2Br9
mp-956096,-0.33635833,HfFe2
mp-20461,-2.128683666,BaPbO3
mp-567956,-0.840415785,GaSe2NCl6
mp-974662,0.609138848,Rb3Pr
mp-6167,-3.387837196,Ba2NdNbO6
mp-1412,-0.37789907,Ti3Sb
mp-8842,-0.786879977,CaSiPd
mp-1448,-0.590284716,NdGa
mp-605821,-1.690698626,Nd3SeBrN2
mp-989195,-3.282828517,ScClO
mp-3574,-0.127811832,MnAlCu2
mp-3277,-2.153320221,BAsO4
mp-768317,-3.836461367,Dy2SiO5
mp-17784,-3.070305838,CaTiGeO5
mp-5618,-2.303523949,Mg2As2O7
mp-29416,-1.579554922,Pr5C2Br9
mp-557004,-3.275483379,SiO2
mp-600449,-0.609059295,DyCuSb2
mp-23914,-1.573894897,CaH12(ClO3)2
mp-861657,-0.187359436,Li2PrAl
mp-752953,-1.484100692,ZrTi2O
mp-744625,-0.989336312,ZnCrH15N5Cl4F
mp-9702,-2.604195658,Sr3BPO3
mp-504928,-0.209073941,NaCu3Te2
mp-720279,-1.496683939,Na4H20RuS4(NO9)2
mp-560824,-3.028460395,La6B(NO2)3
mp-2918,-2.738038363,YCuO2
mp-772403,-2.832516107,NbVO4
mp-867570,-1.829520019,Rb4Sb2O5
mp-850747,-2.33529572,LiFe2P2HO8
mp-865132,-2.498654256,Li4Ti3Fe3(SbO8)2
mp-863665,-0.452931606,Pm2CuIr
mp-7905,-2.870498641,SiO2
mp-776021,-1.837256727,Li4Sb(TeO4)3
mp-707424,-1.682432445,Al2H12(SeO5)3
mp-22502,-0.212391054,Mn3IrN
mp-11737,-2.690627779,Li4SiO4
mp-976762,0.187107033,NiAg3
mp-770548,-2.156797662,Na6Cr2P(CO4)4