id,formation_energy_per_atom,pretty_formula
mp-504358,-2.548198228,LiCr6P7O24
mp-667336,-0.741345881,Cs4Zr3Te16
mp-758180,-2.937814855,CsSi3HO7
mp-557753,-2.556912073,K3PO4
mp-867339,-0.343896537,CsK2Bi
mp-770379,-3.416155823,Tm2GeO5
mp-5990,-2.860513149,CsLi(B3O5)2
mp-643061,-0.339658262,Mg3ReH7
mp-19368,-2.935173773,Sr2V2O7
mp-759486,-2.612973283,LiNbSn3(PO4)6
mp-561011,-3.498655724,Li2Ta2(OF2)3
mp-3056,-1.436774533,NaTlO2
mp-15502,-1.069198893,Ba4TiP4
mp-15103,-3.099008791,Sr3Y2(GeO4)3
mp-27394,-1.798988221,CsSnCl3
mp-4735,-0.485917685,TbCo9Si4
mp-974267,-0.533248666,KH8N3
mp-753881,-1.780260921,LiAg2F6
mp-29162,-2.799887454,NaNb10O18
mp-622018,-1.842859361,BAs5(Pb3O10)2
mp-770635,-1.359291796,LiNiO2
mp-557914,-3.755801217,DyTaO4
mp-542573,-0.623440632,ThB4
mp-669722,-0.63698892,Nd(Sn2Rh)2
mp-862936,-0.297146593,PmMgAg2
mp-16571,-0.638296793,Ca7Ge6
mp-565,-0.39689072,Sn2Rh
mp-1019800,0.096752265,K8N3O
mp-780318,-2.258259006,LiCoOF2
mp-778833,-1.637865612,CoOF
mp-19043,-2.984045033,LiV(SiO3)2
mp-571347,-1.317576853,Pr3CuGeSe7
mp-20883,0.039569952,Fe3Sn
mp-570442,0.010925623,Th6Mg23
mp-20021,-0.587124395,DySn2
mp-20284,-1.377645242,PdF2
mp-36111,-0.762513821,LiMgP
mp-3677,-1.364821151,MgSiN2
mp-675918,-0.723003944,Li9CrN5
mp-977143,-0.197781577,LaDyRu2
mp-7476,-3.050812362,RbDyO2
mp-14193,-3.921514634,K2ThF6
mp-777522,-2.895116023,LiFeF3
mp-770738,-2.131362207,Na3BSbAsO7
mp-22860,-1.084676609,LaI
mp-755021,-2.155301631,ReO3
mp-569623,-0.759500506,Nb(SeBr)2
mp-12406,-1.598803907,US3
mp-555732,-1.215322235,YbPS4
mp-19489,-2.897980725,SmCo(BO2)5
mp-867731,-1.404691446,Cd2PbO4
mp-721328,-2.008148522,CaAsH3O5
mp-18513,-1.538106102,Ba2MnSe3
mp-269,-0.195592062,TmC2
mp-2695,-0.019731297,Sb2Os
mp-27736,-0.368630654,Re2P5
mp-9039,-2.658729075,Sr4IrO6
mp-19201,-2.513336947,CaMnO3
mp-28869,-0.399832915,Ga3B4Pt9
mp-772676,-2.912166892,Sr2WO5
mp-570689,-0.830078973,CaInPt
mp-675597,-1.043602055,Na3NO2
mp-6978,-3.065468493,RbHoO2
mp-684620,-1.474456462,Nb25S48
mp-774616,-0.500763276,H5C3N5O
mp-764505,-2.363554451,LiFe2(BO3)2
mp-631475,0.566509632,TlZn2Tc
mp-677520,-2.487011762,KBa6Zn4(GaO3)7
mp-19072,-1.959743312,Si(NiO2)2
mp-25405,-2.169435854,LiCuPO4F
mp-12867,-2.647526936,SrSnO3
mp-763068,-2.573645603,Fe4OF7
mp-977569,-1.12678081,NaH6CN2ClO2
mp-557047,-3.109113897,Cs2NaCrF6
mp-626467,-2.070924894,Al(HO)3
mp-5778,-0.42569597,AlVFe2
mp-777903,-2.089571983,Li4Cr2Fe3Sn3O16
mp-977123,-2.659780055,NaTiO3
mp-28866,-0.992468395,Te2OsCl12
mp-1877,-0.415097891,HoAl3
mp-24103,-0.821725352,CuH12Br4(NO)2
mp-1825,0.019077418,Cu2Sb
mp-37520,-1.498087649,Ca(PrTe2)2
mp-722485,-2.186709237,SrP2(H2O3)3
mp-745107,-3.144208912,Ca2MnAl2Si3HO13
mp-12061,-0.471979369,Lu(FeB)2
mp-5601,-0.490195611,HoCoSn
mp-759871,-2.515663376,LiBi(PO3)4
mp-878,-2.473393818,Ho2S3
mp-763933,-2.029587662,Li3CrFe3O8
mp-866283,-0.633978842,CaHoRh2
mp-11714,-0.204954328,SiC
mp-554951,-1.340895581,GaH20C2S2NO14
mp-17207,-0.709716397,Tl4GeS4
mp-978993,-0.340161251,Th3S
mp-23015,-1.14188695,Cs3Mo2Br9
mp-697772,-2.615083039,Li3V2P5O18
mp-9205,-1.955196689,KSeO2F
mp-11695,-1.01431815,Rb2Pd3S4
mp-707310,-2.080083335,K2Zn3P4(HO3)4
mp-542486,-0.841113677,Sc3(Si2Ni)2
mp-777041,-1.933179738,Li4Mn3Co3(SnO8)2
mp-642332,-0.574132644,Nd11In9Pd4
mp-690578,-0.222757602,Nb2SiTe4
mp-6643,-3.280282857,BaDy2ZnO5
mp-998535,-1.357597841,InPbCl3
mp-24389,-2.156867856,CaPH5O6
mp-15651,-0.285619316,NiSe
mp-3337,-0.703586336,Ti6Si7Ni16
mp-557354,-2.332728619,Tm2Te4O11
mp-696396,-1.891622981,NaHCO3
mp-24384,-1.668852199,CaH8(ClO2)2
mp-6992,-0.72602714,Eu(NiAs)2
mp-570707,-1.629181743,NdSe2
mp-10554,-0.714964801,Ca3TlN
mp-15359,-3.258998476,GdAl3(BO3)4
mp-28286,-2.801722682,Na3Sb5F18
mp-779343,-2.888438648,LiMnF4
mp-22288,-2.041499157,BaCe2CoS5
mp-14769,-1.420877438,Ba2Zn3(AsO)2
mp-540223,-2.667425616,Li2MnP2O7
mp-758235,-1.637245953,Na2TeH5SO10
mp-759001,-1.860756243,Mg2Cu2P2(H4O5)3
mp-975656,-0.38870847,Pr2NiIr
mp-18500,-0.338397764,K3Sn4Au
mp-781677,-2.156000787,Mn3(O2F)2
mp-756666,-1.656334987,BaCaI4
mp-776747,-2.482898858,V3Fe2Te(PO4)6
mp-770043,-2.272961955,Li4Ti2Cr3Co3O16
mp-561008,-2.983115803,Ca(PO3)2
mp-676109,-1.861861626,Li3InCl6
mp-378,-0.82329818,ErSi
mp-777775,-1.243390161,Ag(H7O4)2
mp-772861,-1.710803718,BaSr2I6
mp-989616,-0.86910055,CaWN3
mp-766359,-1.64157128,BaCaI4
mp-569895,-2.26357101,EuCl3
mp-570668,-1.764300193,LaSe2
mp-756745,-1.615719044,BaLaI5
mp-568357,-1.394512764,K4La6OsI14
mp-14531,-2.95239179,NaNb3O8
mp-695892,-2.158174005,KH(IF6)2
mp-676227,-4.055863938,Nd2Th2O7
mp-29036,-2.523411105,Ba(YS2)2
mp-9344,-0.466197716,TiTlCuTe3
mp-553243,-2.351701191,YBi2BrO4
mp-570102,-0.61710394,HoSiRu2C
mp-616601,-2.301359312,Ba2InRuO6
mp-976944,-0.013489925,Li5Mg
mp-2449,-0.51328875,NbRh3
mp-775133,-2.547061444,Li4Ti3Fe3(WO8)2
mp-17488,-0.665952047,Tl2Fe3S4
mp-753816,-1.724727272,Na6MgO4
mp-8840,-1.685921562,Na5InO4
mp-15724,-0.419455777,KNa2Sb
mp-1150,-0.670388949,URh3
mp-28823,-1.002824011,Ba4P3
mp-697047,-0.489758931,Li3H4Rh
mp-1018071,-0.101474361,MnFe2Ge
mp-13227,-0.187719533,YbMg2Cu9
mp-605166,-2.218112997,KDyH2C2SO9
mp-582681,-0.041985938,CuAu
mp-675098,-0.646548058,SiH2O
mp-778858,-2.492875164,Na6Mn3(PO4)4
mp-9332,-2.739848787,KGaPO4F
mp-626173,-3.070396964,HoHO2
mp-19991,-0.456951435,SrIn4Pd
mp-505372,-0.227626036,Np(BH4)4
mp-555428,-2.898670049,Sr5(ReO6)2
mp-780883,-2.548342547,Mn3(OF2)2
mp-774964,-2.639433282,Li2CrP3O10
mp-684710,-0.339393438,Cu9S5
mp-850083,-0.820099457,Fe4S5
mp-710,-1.572895957,SmP
mp-972978,-2.45863976,ScVO3
mp-504943,-2.381780232,KNaP2H2O7
mp-975577,-2.438694885,K3La(AsO4)2
mp-627632,-2.866834627,Si4H2O9
mp-755216,-2.831388419,TmBiO3
mp-35795,-2.703176004,BiPbF5
mp-775219,-2.438771137,Cr3P6WO24
mp-758810,-2.441334455,LiBi2P3O11
mp-23438,-2.226624147,BaBiO3
mp-12701,-0.636240966,NdSn2
mp-554203,-2.751023049,Li4Ga3Si3ClO12
mp-568621,-0.440957003,Mg8BRh4
mp-570181,-0.663765024,Np3Se4
mp-605344,-1.379652318,ZnH4SeO6
mp-570629,-0.37517742,Ce4Ru3
mp-560685,-1.178371687,K2Ge(IO3)6
mp-505284,-1.326664236,Pb3(BrO)2
mp-764476,-2.64866799,Li4Fe7(OF7)2
mp-14018,-0.325585474,K3As
mp-558240,-3.400532501,K3Al4P2O8F9
mp-4472,-0.230719259,BMo2C
mp-2092,-0.827205705,CePd3
mp-996959,-1.248411638,LiAuO2
mp-989547,-1.965134255,Rb2NaInCl6
mp-773170,-1.991459987,Cr3SbO8
mp-569743,-0.266965566,Ti4MnBi2
mp-7441,-0.413136233,KP
mp-780436,-2.481896517,Li8Mn5Fe3(BO3)8
mp-29790,-0.633830295,U3Te5
mp-5161,-0.90232972,Sm(GeRh)2
mp-20539,-0.285340741,ScIn3
mp-755570,-0.858949582,Li(NiS)2
mp-18224,-1.985634769,Rb6Ge2O7
mp-18973,-1.303035042,CoSe2O5
mp-865490,-0.162390593,V2CrFe
mp-772432,-1.682711917,FeH4(SO5)2
mp-780586,-2.383960158,LiCoP2O7
mp-862262,-0.456300301,LaCdHg2
mp-667374,-3.159862243,NaAlSiO4
mp-32309,-2.617586594,Sr4Re2NiO12
mp-24267,-1.763198531,ZnP4H16(NO8)2
mp-37036,-1.566459147,Bi2O3
mp-568379,-0.679851959,KInSnSe4
mp-705497,-1.78978458,Ga2P2H9NO11
mp-773165,-1.515429192,Li4Co5CuO12
mp-759728,-2.255413613,Sb7(O2F3)3
mp-7085,-0.317805824,Tm2FeC4
mp-2883,-3.021157518,Sm2Sn2O7
mp-555837,-3.02741712,Rb6Si10O23
mp-20992,-0.321001484,Ce3InC
mp-571442,-1.440252901,YI3
mp-669348,-1.428911676,NbTeCl9
mp-961650,0.37570687,AlVNi
mp-1014257,-0.972142045,Ti3ZnN
mp-29090,-0.861874292,Rb4Au6S5
mp-17633,-3.362038346,Er2SiSeO4
mp-556812,-3.000935372,SiO2
mp-771306,-3.160264874,Dy2P4O13
mp-780199,-2.495858964,Li5Mn6(BO3)6
mp-673645,-0.918778517,Mo7S8
mp-21443,-0.739261737,Ce2Pd2Pb
mp-30882,-0.189469506,TiZn2
mp-980197,-1.201621596,YbErPt2
mp-1016829,-1.482660197,MgRuO3
mp-989589,-0.920074681,LaMnN3
mp-770423,-2.258006549,Mg2Mn3O8
mp-973779,-0.391029458,Nd2CdHg
mp-21019,-0.929186422,Cr2FeS4
mp-12326,-2.383932061,CaZn(GeO3)2
mp-639874,-0.07432317,Ta2Al
mp-769653,-2.430227589,Li2TiFe2O5
mp-559530,-3.155394684,Ti5(PO5)4
mp-667338,0.090529956,PbN6
mp-778369,-2.88530784,V3OF11
mp-20620,-2.973267493,Ba2NbInO6
mp-1019893,-1.532319312,La3Si6N11
mp-504701,-3.502379471,CsTiF4
mp-22904,-2.791626134,CaCl2
mp-21033,-0.859042374,La(GePd)2
mp-771478,-2.42454149,Mn3Fe2P6WO24
mp-977014,-0.504364412,H5PbCI3N2
mp-10474,-3.061349562,NaPF6
mp-677001,-2.815874887,SrAl7Tl5Si5O24
mp-972216,-3.080642687,Sr2SmSbO6
mp-972472,0.34683679,SnAs3
mp-2627,-1.535742333,DyAs
mp-2295,-0.191005342,CaNi2
mp-669648,0.011637802,Ho6Mn23
mp-559977,-2.935923391,KNd(PO3)4
mp-20023,-0.476633804,PrIn
mp-866181,-0.316486978,Li2NdIn
mp-764273,-2.390179481,Na2LiMnPCO7
mp-567623,-0.083960839,Er2Fe14C
mp-864717,-0.137032314,PaCu2Sn
mp-676333,-2.123684903,Ga11NO15
mp-3910,-0.170412446,Ce(Al10Cr)2
mp-38070,-1.654163348,Rb(TeO3)2
mp-4227,-1.755976171,BaVS3
mp-19000,-2.504860309,VPO5
mp-720971,-3.419118045,Ca12Al11Si3Cl5O32
mp-27919,-0.724178581,Ti8C5
mp-559434,-3.194747519,Tb(BO2)3
mp-554783,-1.787797464,KUN3O11
mp-684497,-2.554437605,LiBi(PO3)4
mp-762268,-2.427001513,Li3V2O6
mp-28452,-0.144602679,Fe3W3N
mp-17673,-4.423745114,Lu3O2F5
mp-631542,0.676738833,BaZrNi
mp-754061,-2.232385724,Na3SnPCO7
mp-6684,-2.415134366,NaCdPO4
mp-778751,-2.425028141,Mn6O5F7
mp-4387,-3.684038814,SrZrO3
mp-557264,-3.283786815,SiO2
mp-978496,0.24944069,SiB4
mp-759244,-2.893270384,Li12Nb14ZnO42
mp-16723,-0.354111853,Y3Al2
mp-7788,-0.80571889,Er2Co12P7
mp-1016876,-2.131833433,ZnSiO3
mp-4363,-0.503636521,Ca3Sn13Rh4
mp-24546,-1.517774628,MgH2(SeO4)2
mp-27539,-3.285138258,La2ReO5
mp-772760,-3.886598906,Dy2Zr2O7
mp-777897,-2.279468217,Li4Ti2V3Cu3O16
mp-11719,-0.394925506,K4ZnP2
mp-13961,-0.996222255,NdAs2
mp-505626,-0.411833092,Cr12P7
mp-778352,-2.8546373,LiFeF4
mp-613927,-0.825373868,KCeCuTe4
mp-4340,-3.524698035,TbPO4
mp-980752,-0.098552611,Sm3Co
mp-554097,-1.935179593,Sm3CuSiS7
mp-640324,-0.998606892,TmCuPbSe3
mp-997106,-0.895443527,AgRhO2
mp-22957,-3.597483108,SrClF
mp-862953,-0.635782059,PmSbAu2
mp-762679,-1.556206894,V(TeO3)4
mp-774309,-2.668144995,Li2MnV(P2O7)2
mp-978987,-0.554831567,SrGe3Pd
mp-19844,-0.076884004,Na(FeSb3)4
mp-29740,-0.005151401,Tl(ZnSb)2
mp-30669,-0.528500404,ThGa
mp-42,0.004835691,Ta
mp-20822,-0.567439663,TbMnSi
mp-10096,-0.777119998,Na3Sr3GaP4
mp-705468,-2.530087376,Li3Mn3(PO4)4
mp-849422,-2.090973575,Li4Cr3Co3(WO8)2
mp-706269,-1.831278163,MgNb5O9
mp-989579,-1.780863228,Rb2LiTlCl6
mp-15603,-0.540375459,HoB2C
mp-8308,-0.338063824,Ca3Ni7B2
mp-723093,-1.340756054,Na5H29(IO12)2
mp-569304,0.029940296,C
mp-12974,-0.732810249,Pr2CdPd2
mp-757885,-2.412175069,LiSnPO4
mp-772004,-1.737142985,Li3Co3TeO8
mp-13288,-0.313137603,Ba3LiN
mp-973850,-0.517475065,HoGa3
mp-570132,-1.120603701,Mg8B5IN10
mp-774346,-2.69823807,Li3V2(PO4)3
mp-581696,-1.091094229,CsLu2Cu3Se5
mp-973109,-0.652368042,NdYIr2
mp-18129,-1.9348836,La2ZnGa2S6O
mp-26327,-2.473426364,Li6Bi3P8O29
mp-6333,-2.818422225,NaIn(SiO3)2
mp-4164,-0.113623436,Nd2Co14B
mp-28022,-1.979118239,Na6CdCl8
mp-766505,-1.655229101,RbH2O2F
mp-30376,-0.699213847,ErInAu2
mp-978086,0.580755081,PrMo3
mp-644707,-2.815491186,La5MnOs3O16
mp-12101,-0.703350444,Lu(SiOs)2
mp-547792,-2.072869247,KSbO3
mp-18900,-2.723406905,MgV2O4
mp-29718,-0.481594247,AgW3Br7
mp-766422,-1.101164383,Li3BiS4
mp-999576,-0.386852906,Mn2SiRu
mp-22270,-0.580257282,CoP
mp-18567,-0.161504442,CaZn11
mp-17861,-0.548648314,Tm3Sb
mp-504600,-1.539779902,NaH4ClO2
mp-559346,-3.010060303,K3Nb3Si2O13
mp-778848,-1.426575351,In3NO3
mp-14107,-3.749981571,NpF3
mp-973066,-0.847545595,ScGeRh2
mp-12746,-0.460262946,Ce2Ga10Pd
mp-20775,-2.450569733,CeDyS3
mp-18136,-2.050152679,UTl4C3O11
mp-978854,-0.466117197,Sr(GaH)2
mp-774323,-2.709327073,Li4MnV3(P2O7)4
mp-560665,-1.863435152,LaPb6BrO7
mp-3530,-0.960466616,Au(OF3)2
mp-557539,-2.863740052,MoF3
mp-558753,-2.637259651,BiB2O4F
mp-30641,-0.04606378,Y6Fe23
mp-1952,-0.212064409,Ba7Al13
mp-30388,-0.703377327,HoInAu2
mp-574279,-0.498835724,TlIn5Se7
mp-975787,0.774033211,PrW3
mp-604295,-0.664818034,HgH16(Br3N2)2
mp-12077,-0.436868931,Y(FeB)2
mp-766856,-1.922739842,CuPO3
mp-669353,-1.817434454,Cs2TeO4
mp-766828,-3.299064557,Li4Ti15O32
mp-989406,-0.787510089,LaTcN3
mp-37233,-1.941263652,Nd2CdS4
mp-775020,-2.621408002,Mn2OF3
mp-18903,-2.554799603,Sr2CdWO6
mp-541581,-2.23083804,KSO3
mp-770905,-1.852436156,LiMnAsCO7
mp-625316,-2.100256165,Al(HO)3
mp-561461,-2.96173562,Cs2KMnF6
mp-707208,-0.569196551,H8C2SeS2(N2Cl)2
mp-18998,-2.598087362,Sr4Mn3O10
mp-679971,-1.681496388,TiSi4(NCl7)2
mp-20914,-0.52271724,NdIn2Ir
mp-13907,-2.739209286,CdSnF6
mp-620364,-2.73108433,CaSmCuClO3
mp-867753,-0.288800948,CuSbRh2
mp-850414,-2.448749877,LiB3P(HO3)3
mp-28693,-0.476070927,Al3Te3I
mp-1019809,-2.912254431,KBe2B3O7
mp-7927,-1.163034185,Nb4N5
mp-628599,-1.940889132,YbBi2IO4
mp-761969,-1.743474164,Li4Fe3Ni3(SbO8)2
mp-20643,-2.595951854,Y2Ru2O7
mp-26100,-2.161600096,Bi2(PO4)3
mp-756392,-2.625199354,LiCuSi2O5
mp-972507,-2.285633742,Yb2Co2O5
mp-24426,-1.131863164,HgH2SeO5
mp-756683,-2.740956206,HfBiO4
mp-510463,-2.391374451,KCeH2S2O9
mp-770554,-1.579372406,Mn3Co3(SnO8)2
mp-27537,-1.825305326,Na2TeO4
mp-765677,-2.322871211,Li6V5SbO12
mp-13447,-0.122292852,Zn13Rh
mp-31090,-0.845704349,Er2Pd2Pb
mp-770218,-1.885891888,ZnIn2O4
mp-561446,-2.651775118,BaCa(GaO2)4
mp-850834,-3.725862329,Tb5Ti5O17
mp-721017,-1.515624119,Na2Te(H5O4)2
mp-6712,-2.922215859,NaLuGeO4
mp-3651,-1.093778985,Nd(SiRh)2
mp-6623,-2.127790602,Rb2Cd2(SO4)3
mp-554623,-3.460563967,Sm2Ta2Cl2O7
mp-766370,-3.802087073,CeZr9O20
mp-768072,-2.191864899,NaMnPCO7
mp-977,-0.309908182,LuIn3
mp-652274,-1.180450541,Ge2RuC4(Cl3O2)2
mp-680388,-1.374346752,ZnCuTeCl2O3
mp-771216,-2.659488033,Sr3(AsO4)2
mp-754798,-1.35565552,Bi2SeO6
mp-556665,-0.747302673,TlBiP2S7
mp-770528,-2.018329497,Li5MnO4
mp-5730,-3.113847197,Ba(BO2)2
mp-1019785,-2.131295686,K2Si(S2O7)3
mp-16713,-0.488190761,Pr2B5
mp-557268,-2.425859236,KLi4AlO4
mp-557320,-1.744363418,K4Re2Cl10O
mp-974616,-0.0129512,Pt3Rh
mp-645513,-1.977446003,HfTl8(MoO4)6
mp-7432,-0.514306088,Sr(CdSb)2
mp-24440,-1.318082602,Na3SbH18S4O9
mp-31447,-0.423709044,TbAgPb
mp-8696,-1.809557358,K3Na(SeO4)2
mp-13868,-1.512624607,PdF4
mp-571069,-0.773605407,Ba3(CdSb2)2
mp-625583,-1.193270575,H7BrO3
mp-27566,-1.391917542,K3(PtO2)2
mp-675524,-1.87645689,CsPbCl3
mp-16108,-0.804554059,Cs3P6N11
mp-18853,-1.915506118,TlV2AgO6
mp-667295,-1.468698493,Cs7Cd3Br13
mp-863730,-0.112723142,KTl
mp-973444,0.881924557,K3V
mp-973759,-0.167865119,Lu2MgCd
mp-558403,-2.141129619,P2Pb(XeF6)3
mp-973773,-2.17151926,Nd2Cd2O5
mp-558490,-2.833365792,Tb3Se2ClO8
mp-1008284,0.174475728,Cr3Ni
mp-643697,-0.137847491,Rb3MnH5
mp-7500,-2.39807121,Na4SiO4
mp-46,0.007309698,Ti
mp-759209,-1.220087508,Ag2SnO3
mp-720571,-1.653705369,CaH8(ClO2)2
mp-15845,-0.547193687,SrLi4N2
mp-17980,-1.315147201,K2MoS4
mp-766885,-2.010711639,Sb3PO7
mp-27578,-1.835466194,As(S2F3)2
mp-29155,-2.602224411,TlB3O5
mp-780360,-2.131397145,Na8Gd2O7
mp-767518,-2.758107899,Na2ScPCO7
mp-22664,-0.528083945,HoRh3C
mp-684096,-2.390371647,Bi(PO3)4
mp-720118,-2.121488519,Sr3Nd10Al12Si18(N2O)18
mp-640551,-0.108484287,Ba4Si23
mp-715457,-2.308860622,V4O7
mp-1909,-0.123204504,LaMg2
mp-8431,-0.607308681,Ca(BRh)2
mp-22613,-1.385881473,Nb3FeS6
mp-558910,-3.102567894,Li2U3(PO5)4
mp-861973,-0.364418789,PaCdAu2
mp-863709,-0.01389632,Ir3Rh
mp-551826,-1.339794438,NbTlBr4O
mp-8159,-0.460236852,TlCu4S3
mp-974421,-0.029902935,IrRu
mp-20048,-0.662948888,U(Ni2P)2
mp-17065,-3.824637413,Ho2SiO5
mp-1014013,0.044294483,P
mp-15551,-0.443353842,Sr2LiSi3
mp-23859,-1.743250109,CaHCl
mp-16533,-2.057293206,BaNd2FeS5
mp-546321,-2.782409222,Ba2NdBiO6
mp-20049,-0.656149594,LiFeP
mp-567945,-0.443181022,SnTePd
mp-774561,-3.098950524,Zr2(PO4)3
mp-961681,-0.380611518,ZrGePt
mp-973572,-0.463834491,La2TlHg
mp-29634,-0.776588797,V4P2C
mp-698648,-1.938682089,K3(MoO3)10
mp-640024,-0.398118798,HfInNi2
mp-567685,-0.596625533,Er4InIr
mp-4818,-0.896541728,Rb2Sb4S7
mp-491,-2.021934406,La3Se4
mp-16486,-0.406996317,Ce(Al2Fe)4
mp-557362,-3.132844021,AlPO4
mp-999503,-0.300805514,MoN
mp-977542,-0.323968515,LiTbTl2
mp-28433,-1.204176868,RbClO4
mp-636614,-0.390530703,YPb2
mp-767431,-2.597123082,Na3SrPCO7
mp-1609,-0.065618935,Cr3Ir
mp-30493,-0.453093192,ZnCdPt2
mp-2620,-0.827951667,DySi
mp-766142,-1.877277343,LiFe5O5F
mp-676284,-1.176185147,YAgSe2
mp-5820,-1.008374609,Ce(CoP)2
mp-972557,-0.207178852,SmAg3
mp-4287,-2.806886434,Sr2SnO4
mp-19420,-3.001076774,Sr2MgWO6
mp-32642,-2.384839733,Lu2S3
mp-983425,-0.378948086,Li2PmGe
mp-777778,-2.653640801,Li2VO2F
mp-770513,-2.013165475,Li8Mn2O7
mp-569013,-0.537258625,Ho(SiAu)2
mp-25248,-1.527133207,Li4(CuO2)3
mp-20860,-0.011147273,Mn3SnC
mp-2758,-2.068300404,SrSe
mp-780162,-2.476522492,Li4Ti3(CoO4)3
mp-1013707,0.255490617,Ba3PN
mp-6940,-0.329598271,U2IrC2
mp-1009079,-0.00427044,CrTe
mp-29938,-0.526279688,Ba(GaSb)2
mp-12532,-0.81153375,KAg2PS4
mp-631299,0.828979073,NbCrCo
mp-675492,-4.45899245,SrLa5F17
mp-684024,-1.117196494,Li2SiN2
mp-775194,-2.072143666,Li2Fe3WO8
mp-29070,-1.692178782,La5C2Br9
mp-756350,-3.190131676,TiNbO4
mp-1116,-0.042024099,Sr2Mg17
mp-11202,-0.561049701,Y6FeSb2
mp-2914,-0.857201473,LaSi3Ir
mp-677474,-2.253393716,Na4Al3Ge3NO15
mp-778052,-2.979546573,Sm2TeO6
mp-554831,-3.035488548,Yb4Cl6O
mp-19070,-2.613986219,Sr3Mn2O7
mp-541157,-2.792576436,EuCd(BO2)5
mp-27826,-1.779852287,K2MoCl6
mp-9845,-0.83696048,RbCaAs
mp-15827,-0.698709692,Ho2Ge2Os
mp-557833,-0.550426596,Ti(Ag4S3)2
mp-11765,-1.060865318,Ti5Se4
mp-29381,-0.554424426,Na2Te2As
mp-1019513,-3.129862741,AlPO4
mp-5251,-1.021529278,Ca4CN4
mp-18595,-2.830300667,LuCu(BO2)5
mp-944,-0.043467191,AlB2
mp-21484,-0.36584435,PuGe3
mp-557605,-0.533270693,Hg2Pb(SI)2
mp-15790,-2.188105168,LiHoS2
mp-13580,-1.122017822,LuGePt
mp-849413,-2.489404166,Li5Mn6(BO3)6
mp-600026,-3.237774944,SiO2
mp-568681,-0.66215035,Mg8BPt4
mp-973938,-0.554102186,LuCoGe2
mp-1018098,-1.283090858,Ba2BrN
mp-31509,-0.413727109,BaIn
mp-10131,-0.281618098,Zn3(Ni10B3)2
mp-977582,-0.775202154,ZrZnRh2
mp-774426,-2.849049547,Nb3Cr(PO4)6
mp-11351,-0.567291347,CeAlNi
mp-705553,-1.696965591,Fe23O25
mp-557863,-0.880032745,K2Ag4Pt3(NO2)12
mp-23492,-1.808755504,Si(Bi3O5)4
mp-1008918,0.845545021,CdN
mp-505679,-2.907116528,HfV2O7
mp-570875,-0.165807195,Ga2Os
mp-757150,-1.283065294,Li5BiS4
mp-16252,-0.583078672,BaCaGe
mp-696853,-2.509449256,CaZnSiH2O5
mp-722275,-1.368151766,CuH20S2(NO7)2
mp-626720,-1.843648361,BaH4O3
mp-2544,-0.248657625,Zr2Be17
mp-28168,-1.567393452,Th6CBr14
mp-9759,-2.967215046,BaPr2PdO5
mp-770566,-2.213510867,Be(FeO2)2
mp-765046,-3.019666667,Li4V2OF7
mp-2408,-0.637090602,Ga3Pd5
mp-999389,-0.04288008,NbFe3
mp-753821,-3.438556085,Pr3GaO6
mp-5670,-3.264789058,LiTi2O4
mp-10419,-0.414940733,Na4ReN3
mp-775331,-2.463076129,LiVO2
mp-864755,-1.208461899,LiAcTe2
mp-19182,-3.043526683,Ba2CaWO6
mp-5170,-0.750626166,NdCoSi2
mp-5222,-0.599644428,ReTeS
mp-978824,-0.484212736,Sm2RuAu
mp-31281,-0.741989081,SrSnAu
mp-567351,-0.42208231,Tb4MgIr
mp-862605,-2.219649594,Rb4Zr6CCl18
mp-12712,-0.695076653,Zr3Pd4
mp-770836,-3.51583662,Ba5Sc6O14
mp-744181,-1.826918675,K2Cr2AsHO10
mp-567375,-0.834199918,Ce(AsPd)2
mp-9851,-0.53107411,HoP5
mp-9913,-0.387488016,Fe5B2P
mp-1018128,-0.303484623,ScAg2
mp-28554,-1.414007099,Ca2AsI
mp-7756,-0.958893778,SrLiSb
mp-684677,-3.284839527,Al2O3
mp-626046,-1.207599815,H7NO6
mp-9908,-0.854830645,Ba2Sb
mp-17913,-3.370357204,Tb2SiSeO4
mp-6223,-0.51391874,DyNi2B2C
mp-21666,-0.263743107,Nb3(Fe10B3)2
mp-557936,-1.360425318,Zn4Cu5(TeO6)3
mp-88,0.008488165,Dy
mp-555843,-0.36630894,Ag3AsS3
mp-769471,-2.356835515,Fe3Co2P6WO24
mp-997013,-0.413126619,AgClO2
mp-763558,-2.040753697,LiV2(CO3)4
mp-556307,-2.91771206,Na2Si2O5
mp-571419,-0.336412098,Zr2Al4C5
mp-974949,0.825485797,Rb3Ir
mp-7735,-0.388622683,Pr5(CoB3)2
mp-569529,-0.770874511,Ba2Bi3
mp-23548,-1.023674481,AgBiO3
mp-571232,-2.10901692,YbBr2
mp-780260,-2.702275362,TiGeO3
mp-510426,-0.338866295,Ta4Te16Pd3
mp-541860,-1.903701929,TiAs2H4O9
mp-4533,-2.710758632,Na2SiO3
mp-558121,-1.627053874,K4Ba(VS4)2
mp-7264,-3.010879619,Nd(PO3)3
mp-5116,-2.049491261,K6Ge2O7
mp-129,0,Mo
mp-766094,-3.122621419,NbO2F
mp-26271,-2.581342148,Li2Sn(PO3)4
mp-8116,-1.07707324,K(MoS)3
mp-762304,-2.226030434,BiOF
mp-618807,-2.081233225,KSb(MoO4)2
mp-9760,-3.075522468,BaTb2PdO5
mp-556575,-2.504129042,Sr2YGaCu2O7
mp-754550,-3.857183831,Tb3TaO7
mp-4535,-3.056160046,PrGaO3
mp-540672,-1.151725362,Ti7Br16
mp-977128,0.813138479,NaRu3
mp-568541,-0.565155561,Dy2B4C
mp-20254,-1.701076989,Na2Te2O7