id,formation_energy_per_atom,pretty_formula
mp-10259,-0.841335989,Zr(NiP)2
mp-683974,-2.312867006,Pr2(SeO3)3
mp-850228,-2.510493219,Li6Mn5Fe(BO3)6
mp-556392,-1.13951339,ZnS
mp-10444,-3.430668204,Ca2Al2O5
mp-8294,-2.544364179,Cs2Li2TiO4
mp-13923,-0.75016132,SnPS3
mp-562345,-2.910040354,Cs2Si2O5
mp-540794,-3.266320774,Ba3SrNb2O9
mp-675634,-2.808472981,KBi2F7
mp-21770,-1.263288091,Cu4As2O9
mp-937760,0.003669591,C
mp-559400,-3.572222371,BeF2
mp-985828,-0.470992657,AgBiS2
mp-551470,-0.82578484,Tl2O
mp-12087,-0.267939751,Cu2S
mp-697146,-1.543135592,Zn(HO)2
mp-760386,-1.287609477,CsClO3
mp-556865,-3.137694423,NaBe2BO3F2
mp-999068,-0.104203803,Ti2AlV
mp-33985,-0.763361531,Ba(InTe2)2
mp-419,-0.462387264,YbB6
mp-1052,-0.354024922,NaAu2
mp-557035,-2.513449335,K3SO4F
mp-756224,-3.863361382,TbGdO3
mp-971920,-0.035970466,TmMg3
mp-774316,-2.856062787,Mn6OF11
mp-568920,-0.415964766,CaAu5
mp-976326,-0.067606708,NaInAg2
mp-15237,-0.310536468,Tb4C5
mp-28324,-0.815695124,Sr3(InP2)2
mp-13871,-0.388896078,P2Pt5
mp-554238,-0.938716869,CuBiSCl2
mp-11674,-0.841790339,Al2Se3
mp-573084,-1.873222053,Yb2S3
mp-18884,-1.908636167,Na4CrO4
mp-780878,-2.602772977,LiMn(PO3)3
mp-784,-0.066179676,KZn13
mp-11578,-0.042143996,VZn3
mp-758849,-2.240724401,CuSn(PO4)2
mp-548479,-3.294164592,Cs2U2O7
mp-862713,-0.284876541,BeGeRu2
mp-755392,-2.415973444,LiSnPO4
mp-715558,-1.826086588,Fe3O4
mp-13412,-0.008239304,Y3Fe29
mp-24431,-2.13233003,Si2H2O3
mp-758089,-3.132226771,Li2Ti3O6
mp-567602,-0.757196307,Yb2Co12P7
mp-766248,-3.312507202,Al11InO17
mp-565354,-1.427549594,LaP5Cl18O17
mp-31251,-0.873848854,Ga(SbCl)4
mp-779698,-1.576865281,ZnTe2O5
mp-30233,-0.270543658,Na3As7
mp-1020011,-1.324594173,Li14P2(N2O)3
mp-673833,-0.653599946,Li7VAs4
mp-8594,-0.109819429,Ag7PSe6
mp-1135,-0.421633018,NbPd3
mp-10699,-0.56169704,LuRh3C
mp-697974,-2.338766465,SmP3H5NO10
mp-561277,-1.613521045,K2PbO3
mp-863657,-2.334825506,PmCl2
mp-23791,-1.929509768,B(HO)3
mp-570071,-0.229084335,Dy2Zn17
mp-21398,-0.225047852,HoIn5Co
mp-683600,-1.986173732,K3Cr4PO16
mp-989521,-1.378746868,Cs2SCl6F
mp-22451,-0.523558102,MoPRu
mp-37214,-1.609583817,MnPbO3
mp-2997,-0.525531464,ThB2C
mp-763319,-2.576523383,V3O5F
mp-13445,-0.476684176,Rb2As2Pt
mp-23403,-2.296744979,SbIF5
mp-864782,-0.369596538,Ta2MoRu
mp-17891,-3.372044734,NaYSiO4
mp-676084,-0.525816704,Na2SnS
mp-762271,-2.453897111,Li2V3O6
mp-1009731,1.106775652,ReC
mp-865447,-0.867340197,LuSbPd2
mp-27544,-1.266771366,Cs3Bi2Br9
mp-22673,0.077776774,MnInCu2
mp-673696,-4.011178915,Lu4Zr3O12
mp-30455,-1.032879793,HoBiPt
mp-542043,-1.81734918,K4H6C2O9
mp-4338,-1.07508221,Cr2CdS4
mp-752549,-2.184121625,LiAgF2
mp-21894,-0.301034602,LiSn4Ir
mp-5835,-0.828980981,Ho(CoSi)2
mp-542045,-2.017724214,UTlH(SeO4)2
mp-11843,-0.39394501,DyAl
mp-989567,-2.720712148,Cs2RbTlF6
mp-640089,-0.121523302,CeCd11
mp-556389,-2.094845769,UTl2(TeO4)2
mp-695514,-3.491193245,NaSr2NdTi4O12
mp-17880,-0.5363111,Al13Ru4
mp-504502,-0.601980651,Ta3P
mp-708015,-1.110987303,Na2CuH20C12(N2O3)6
mp-774528,-3.276750148,Li11Ti24O48
mp-571213,-0.961463411,PNCl2
mp-754604,-3.346046596,BaBePO4F
mp-865838,-0.358841484,LiSiRu2
mp-568854,-1.362937713,CsReBrCl3
mp-691106,-2.080929469,MnSnO3
mp-510691,-0.396112345,Hf5Sn4
mp-1018072,-1.656384153,KTiS2
mp-556353,-2.560142227,Rb2NaNiF6
mp-16055,-3.280057901,KLi3Zr2(Si2O5)6
mp-7931,-1.050573499,SrP
mp-11515,-0.37886349,NbRh
mp-42508,-2.974543385,Na4BeAlSi4ClO12
mp-16487,-0.327793002,Ce(MnAl2)4
mp-865146,-0.487605795,MgAsPt5
mp-9544,-0.269467687,Er2C3
mp-29989,-0.92317199,Sm3(SiIr)2
mp-21795,-0.374372502,Yb(Ga4Co)2
mp-29313,-0.967439373,Ta4P4S29
mp-775742,-1.915017166,Li2Fe3TeO8
mp-27033,-2.57426847,Li2SnP2O7
mp-862563,-0.129700762,Sc2BeTc
mp-28774,-2.812071674,KSnF3
mp-677248,-1.947085588,Ca2AlH10IO8
mp-23194,-1.425614109,LaI2
mp-25378,-0.543411108,CuO2
mp-13208,-0.695720892,Mg2Pt
mp-20719,-0.457056653,EuHg2
mp-756146,-1.081635214,Mg(AgO2)2
mp-17023,-0.243575852,UNi2
mp-13917,-0.514780414,LiCaGe2
mp-10228,-0.808891942,NbSe2
mp-14721,-2.560536146,KSiSbO5
mp-863,-0.149237614,PuCo2
mp-764621,-2.350196446,Li3Fe8(BO3)8
mp-696156,-2.581025557,Ca3Si2(H3O5)2
mp-776062,-2.68273532,Li2FePO4F
mp-1001082,-0.481185756,Si(CO)2
mp-560263,-3.000371011,Pr4Se3(O5F3)2
mp-767671,-3.152694265,Li3VF6
mp-31464,-0.679394642,Dy5Bi3
mp-15778,-0.405491337,MgNiSb
mp-756228,-2.816864153,SrLaCl5
mp-21611,-2.638121179,Na2InCuF7
mp-631450,0.61701913,BeGe2Te
mp-560595,-2.76934861,Ca2AsClO4
mp-2302,-0.475458808,AsRh2
mp-28255,-2.516733578,LaHO
mp-650532,-1.415189579,Cs2K2Cd3O5
mp-10336,-1.250402284,BaYCuTe3
mp-10759,-0.210640862,GeSe
mp-4013,-0.888692552,Nd(SiRu)2
mp-753709,-1.653591309,BaCaI4
mp-779276,-1.653841682,LiCu5(PO4)2
mp-781628,-2.503395361,Li7Mn8(BO3)8
mp-639512,-3.280654894,SiO2
mp-31459,-0.124345613,TaCoSb
mp-560187,-1.986787516,SrCuAs2O7
mp-760485,-2.290553171,Li2CuSiO4
mp-17125,-2.23896766,CsNa3Li12(GeO4)4
mp-973960,-2.360632924,KScO3
mp-631556,0.738840126,BaGe2B
mp-23375,-0.959255105,PNCl2
mp-7911,-1.233151557,KCuO
mp-29174,-1.375350851,SiCl2
mp-574070,-0.200103567,Cs4Pb9
mp-980749,-0.11138488,VFeRu2
mp-973976,-0.930156817,LuBr
mp-776215,-3.102236316,Li2Ti3NbO8
mp-8954,-0.811684802,TaSe2
mp-683942,-2.1036449,BaU(SeO4)2
mp-555742,-3.072094144,Ba2B5ClO9
mp-6468,-3.156938839,BaNd2ZnO5
mp-631335,0.660561452,MgTaZn
mp-6860,-2.644458105,Na3AlP3NO9
mp-774324,-2.429263704,Li6MnFe5(BO3)6
mp-23632,-1.756567472,Ca2BN2Cl
mp-28348,-1.038399894,Ba2As2Se5
mp-753059,-3.415483174,TiOF
mp-20696,-0.030392803,Fe3W3C
mp-10224,-1.345855046,NaVS2
mp-1927,-0.989049661,Dy4Sb3
mp-650026,-1.940212333,PrIn2Cl5
mp-4972,-0.311079666,LuInCu2
mp-542172,-0.605770148,YbMgGe
mp-762270,-2.266396731,Li2Cu2F5
mp-504827,-2.165220254,Ga10GePb3O20
mp-867615,-2.11044285,Ca2Tl2O5
mp-999305,-0.654477733,PrRh
mp-696649,-1.018109224,KH2I3O
mp-29450,-0.093880452,CuSe3I
mp-569624,-0.097236974,HfCr2
mp-720719,-3.16495694,Ca2Y2Si4H2CO16
mp-866207,-0.772983056,LuCdPd2
mp-569811,-0.98038848,Yb11GaSb9
mp-20207,-0.228979358,MnAsRh
mp-570630,-0.522322139,Tb2In16Pt7
mp-766047,-2.576066178,K5Li3Ti8(AsO5)8
mp-769317,-3.50815923,Ca4Ta2O9
mp-8577,-0.671665235,Sc3GaC
mp-30491,-0.064351785,MgCd3
mp-568932,0.027900493,Cd2Os(CN)6
mp-1001843,-1.051164779,HoP
mp-12076,-0.450345299,Tm(FeB)2
mp-675569,-3.106698427,KPF6
mp-697260,-0.560777238,CdH8C2S2(BrN2)2
mp-773200,-2.672279903,LiVB2O5
mp-730460,-1.942802907,Na5H3(CO3)4
mp-680460,-1.560250593,Rb2Cd2(SO4)3
mp-13211,-1.122242619,Ag2Te2O7
mp-81,0,Au
mp-29731,-3.519037787,HoClO
mp-776125,-2.701749593,Ti3Cu2Sn(PO4)6
mp-783906,-2.053465422,Mn2O3F
mp-758088,-2.21951386,Ba6Bi6O17
mp-24171,-2.245302891,SrPH3O4
mp-9697,-0.400811727,Cs6GaSb3
mp-685608,-3.633456019,K2UF6
mp-973058,-0.196085975,LiLu2Al
mp-582759,-0.488983456,Ti6Ni16Ge7
mp-574176,-0.555396132,Ba(InAu)2
mp-29575,-1.724252878,Cs3Fe2Cl9
mp-690556,-2.647879403,CaLaMnRuO6
mp-752397,-1.747369776,Ba2SrI6
mp-7979,-2.402089981,K2PdF6
mp-706875,-1.703110041,Fe21O23
mp-973156,-1.775543749,ScAsO3
mp-607450,-0.141923204,In3Ru
mp-767791,-1.711015572,Mg5Co19O32
mp-603910,-0.64832654,ZnH14C2(N2Cl)4
mp-23702,-0.672678746,LiH2N
mp-685414,-1.706373837,Tb11CuSe16
mp-19962,-0.455348623,Sn2Pt
mp-1415,-2.027236667,CaSe
mp-645425,-1.173168608,Pr7C3I10
mp-866869,-1.555519826,Ca3Sn2S7
mp-570568,-1.291526798,W2NCl8
mp-777129,-3.475290538,TiO2
mp-675601,-2.871931847,Al3NO3
mp-542777,-0.705870823,CePt5
mp-27910,-0.415511689,Bi2Te2S
mp-5725,-0.273839961,CuAg3S2
mp-556888,-2.92398885,KSbF6
mp-13483,-0.780481124,PrBPt4
mp-977440,-0.820136494,LiTiPt2
mp-974745,0.65906466,Rb3Tm
mp-998743,-1.272587719,TlGeCl3
mp-1019782,-2.761783075,K2LiB(PO4)2
mp-29239,-0.668381616,LuB2Ru
mp-767779,-2.569736928,VCr(P2O7)2
mp-556250,-2.977679071,KSrB5O9
mp-669575,-0.504733984,Hf2InNi2
mp-556021,-2.364745723,BaTeO3
mp-778220,-2.257311129,Li4V3Cr2Fe3O16
mp-685819,-2.917525216,Yb2TiO5
mp-2258,-0.035003135,Cu3Au
mp-775257,-2.453811587,Li8Mn3Fe5(BO3)8
mp-2316,-0.348196512,TmZn
mp-779457,-0.728566779,Ge2N2O
mp-973839,-0.07790787,PdAu3
mp-5280,-2.082592138,In2Ge2O7
mp-12427,-3.199437359,Sr2TaGaO6
mp-18918,-2.061817573,ZnWO4
mp-971779,-0.180586761,ZnRh3
mp-2516,-0.357935497,YZn
mp-19927,-0.579713871,CeZnGe
mp-27589,-1.664596894,Cu5(PO5)2
mp-2533,-2.886860796,NbO2
mp-971921,-0.473228881,TbSmHg2
mp-3988,-1.467438132,BaCu3O4
mp-5078,-3.43570731,SrZnF4
mp-770212,-1.762365361,Li6Ti2S6O
mp-28658,-1.829930522,Na2CdCl4
mp-777464,-2.961109395,Li4Ti5Cr3O16
mp-30385,-0.646046653,Ho2Au
mp-772213,-3.129678715,La4CuO8
mp-755525,-3.671657152,TmTiO3
mp-990436,-2.585252402,ScClO
mp-11771,-0.228107351,CoCu2SnSe4
mp-569007,0.012613312,Ga
mp-672287,-0.250294378,Li13Si4
mp-995234,-0.877843773,HCO
mp-5712,-0.093677754,Cd2GeAs4
mp-16750,-0.385571355,HoCuPb
mp-867327,-0.673533962,Hf2TcRu
mp-862917,-0.694798543,PmInAu2
mp-982873,-0.058575808,Na3Tl
mp-23314,-0.835726654,Pr4Bi3
mp-5577,-0.859425238,Ce(GeRh)2
mp-5564,-0.434387664,Pr(AgGe)2
mp-11021,-1.520990124,GaAuO2
mp-1526,-0.009828848,TiHg
mp-27748,-0.182657781,Be(B3H7)2
mp-24726,-0.584098738,TiH2
mp-19076,-2.802502518,HoCrO4
mp-174,-0.277164961,Tl5Te3
mp-694898,-2.857317514,Sr5La3Mn4(WO6)4
mp-25946,-2.411254379,Sb2P5O16
mp-568627,-1.338973861,Rb4TmI6
mp-769531,-2.261069236,Na3Mn2P2(CO7)2
mp-505172,-1.05498686,NaZrCuSe3
mp-571102,-0.681406315,TlI
mp-764770,-2.030620199,Li13Mn2O9
mp-656884,-0.846657826,Ni9O10
mp-753580,-3.057627136,LiTiSiO4
mp-28134,-1.465270819,Ba2As2S5
mp-735589,-2.756927264,CaV2P3HO12
mp-639463,-3.279027107,SiO2
mp-2715,-0.326955602,CoAs2
mp-779340,-2.797453037,LiV4O5F7
mp-41236,-2.865940414,Ba2La2Zn(WO6)2
mp-18483,-2.427883267,Rb6Si2O7
mp-778602,-2.870299601,Ba3GeO5
mp-8809,-3.050308273,BaLa2PtO5
mp-33319,-3.782981181,Pr3NF6
mp-23348,-0.9470805,KFeBr3
mp-559415,-2.581669947,Na2Cu2Si4O11
mp-775272,-2.362182365,TiFe3(PO4)6
mp-643279,-0.4958026,K2H6Pt
mp-646008,-2.23979679,Gd10S19
mp-510706,-0.983750788,Er4Si9Ir13
mp-556232,-2.972043094,Na2CaMg(PO4)2
mp-770356,-2.315506015,Na6Fe2B4SO16
mp-4969,-0.788610914,TbCoSi2
mp-867561,-2.238964189,Li2Cu2F7
mp-677011,-3.264351257,K4BaTa6(Si2O13)2
mp-1630,-0.178377354,Zr3Hg
mp-1099,-0.305891696,NiGe
mp-6397,-2.54365841,Na2Ca(SO4)2
mp-998299,-0.771171078,RbSeBr3
mp-22473,-0.792646701,NaInSe2
mp-542931,-2.645156611,Bi2B8O15
mp-556936,-2.931716185,CsBa(BO2)3
mp-978286,0.18136668,Mg3Mn
mp-757495,-2.470082936,Sn(PO3)4
mp-568902,-0.548296256,Yb(CoGe)2
mp-746,-0.395283036,Sr5Si3
mp-22660,-1.413571527,InAgO2
mp-11834,-0.146837848,CuNiSb2
mp-643006,-0.316071984,Cs3H5Pd
mp-13275,-0.794333118,NaSrP
mp-31045,-0.664766349,KAuI3
mp-6691,-2.058950259,Ba2Dy(CuO2)4
mp-18197,-2.391847041,Na2BeGeO4
mp-11583,-1.932902051,Zr2SN2
mp-20936,-2.16135948,Ba2PrCu3O7
mp-754794,-3.100778024,La2S2O
mp-946,-0.660377078,PrIr2
mp-561283,-1.737597258,CdGaH14O7F5
mp-571527,-2.003506705,Cs2LiInCl6
mp-7808,-0.66579221,BaP3
mp-13456,-1.138675564,ZnS
mp-677067,-3.220407931,Ca3Al4Si8(ClO12)2
mp-30750,-0.533836503,CeAl4Ni
mp-31979,-2.637580895,Li2Mn(PO3)4
mp-997108,-1.01035075,RbAgO2
mp-676319,-3.7832302,Dy2Zr2O7
mp-768794,-2.423241599,LiBiB2O5
mp-705517,-0.670927974,CsCoH18N6(ClO2)4
mp-144,0,Ho
mp-1018158,-0.197904923,DySb2
mp-18244,-1.284823719,K6MnS4
mp-11990,-0.344094038,Pr2CdNi2
mp-561397,-1.761944854,SO3
mp-21559,-0.644198066,Zr2Te
mp-568830,-0.693381453,TmInAu2
mp-4090,-1.065707382,Ce(SiRh)2
mp-31067,-1.116113399,Nd(ClO4)3
mp-9307,-0.56999697,Ba2ZnN2
mp-6089,-2.74720349,BaZn2(PO4)2
mp-7787,-3.027518375,HfSO
mp-4692,-0.857711638,Dy(SiNi)2
mp-18831,-2.888670867,Y2Mn2O7
mp-573109,-2.003666654,Sm2Se5O13
mp-30459,-0.624251053,ScNiBi
mp-771282,-2.680011573,Li24Ti7Cr5O36
mp-753830,-2.815045689,Tm2Sb2O7
mp-11436,-0.404651408,Er(VGa2)2
mp-767573,-2.783987699,Na2ErPCO7
mp-676854,-1.403177931,Ta14(CuS8)3
mp-571367,-0.761883012,Hf(CoSi)2
mp-975073,-0.637114207,NdAu3
mp-769274,-2.180800155,LiCuPO4
mp-984744,-0.217099749,Ca3Tl
mp-504772,-0.955157656,Y3(SiRh)2
mp-865579,-0.270688705,Li2ErIn
mp-13755,-2.890952752,BaNa(PO3)3
mp-27972,-2.098107474,AcBr3
mp-1988,-0.050305266,Y5Mg24
mp-30949,-1.468786352,Sr3SiO
mp-7297,-3.064137579,Cs2SnF6
mp-623030,-0.7294332,Na3CuSnSe4
mp-667327,-1.394862658,Ag2Pb8Cl4O7
mp-26823,-2.226238873,Li2Cu3(P2O7)2
mp-8666,-1.008202763,CsAgO
mp-16528,-0.204092949,Al6Re
mp-2644,-0.159049562,CoSb
mp-554120,-1.707950313,DyCuS2
mp-28224,-0.648084661,Hg2AsCl2
mp-975312,-1.470486937,RbF3
mp-5704,-0.62925684,Tl3AsS4
mp-769585,-1.780915969,Li4Mn3Co3(TeO8)2
mp-17667,-0.880292098,Sr3AlSb3
mp-6641,-2.45053051,Ba3SrRu2O9
mp-541491,-0.201588198,U2Ge4Mo3
mp-568662,-2.953494626,BaCl2
mp-778698,-1.763748377,Ga3NO3
mp-972099,-0.027346817,YbMg3
mp-753327,-2.542432517,LiSiBiO4
mp-16964,-3.28163177,SiO2
mp-542785,-1.583107779,MgH6(CO3)2
mp-695995,-1.735297619,ReSbH4O7
mp-972455,-0.400514004,TmLuIn2
mp-1578,-0.323485911,V3Rh
mp-644527,-3.142080645,LiY2Ti2S2O5
mp-975886,-0.309915239,PrSmZn2
mp-768969,-2.385789574,Bi3B7O12
mp-976943,0.813099763,NaRe3
mp-505267,-0.466587864,Np2Si4Tc3
mp-12403,-3.27199239,LiBF4
mp-646967,-3.214470082,Ca3Mg3(PO4)4
mp-1542,-0.564640251,YB2
mp-20555,-0.107897869,NaPb3
mp-23305,-1.611457496,EuI2
mp-548824,-3.143769057,BaTbO3
mp-865380,-1.129234175,Tm2PdPt
mp-674352,-0.513401849,TaAg7S6
mp-754512,-0.638847706,Ge11N11O5
mp-2108,-0.76664221,Ti5Si3
mp-780479,-2.432349018,LiV2P4(HO8)2
mp-674412,-3.786453048,Ce8U2O21
mp-973185,-2.64355148,ScAgO2
mp-757242,-1.816161652,Li5AuO4
mp-6072,-0.169166175,TmMn6(GaSn2)2
mp-27918,-0.609605865,Sc3Si4Ni11
mp-675509,-1.832400373,Mg4(BiO2)9
mp-9873,-0.563061192,EuZnGe
mp-757442,-2.71223722,Ca3In2O6
mp-680403,-0.746975538,K2In3AgSe6
mp-3352,-0.994165467,ErSiPd2
mp-558794,-1.482305877,Cu2BH5O6
mp-997032,-1.692880542,MgAuO2
mp-961697,-0.693056387,ScGeAu
mp-16801,-3.082511858,GdSO4F
mp-568161,-0.589489665,Nd(NiSb)2
mp-769128,-2.799652543,Dy2Sb2O7
mp-23893,-0.835522945,H5BrNO
mp-662570,-3.535810191,BaB2F8
mp-572313,-1.047280176,Cu3Te2(BrO3)2
mp-20527,-0.429679074,La(FeGe)2
mp-3268,-0.362450667,YbB2Ru3
mp-780439,-2.582106204,LiCr(PO3)4
mp-767550,-2.565108708,Na2TiPCO7
mp-28302,-0.34704145,K4CdP2
mp-769004,-1.872077412,Li3BiO4
mp-770354,-2.58682487,Li3V3(BO5)2
mp-17947,-1.142523147,BaCu2GeS4
mp-6706,-2.807715849,TiTlPO5
mp-541772,-0.313780749,Bi4RuBr2
mp-754776,-0.651636277,Sm2Ge5Ru3
mp-644092,-0.299276156,Na2LiAlH6
mp-766995,-3.671539462,LiLa3Ti2O9
mp-567857,-0.066048688,Cd8Ag5
mp-573727,-0.458845763,Bi8SbAuBr9
mp-2345,-4.030857765,Dy2O3
mp-757806,-2.514229419,LiSn(PO3)4
mp-696175,-1.628900034,NaAsH4O5
mp-770547,-2.436354681,Mn2PO5
mp-5710,-0.073437748,Ag3Te2Au
mp-504563,-0.80375868,BaFe2Se3
mp-680639,-0.104759822,Cu3Pd
mp-554758,-2.801938635,SiP2O7
mp-2288,-1.525623518,PuSe
mp-676249,-3.691115069,SrU2O6
mp-12495,-1.091707023,CsTbCdTe3
mp-18005,-3.386230181,NaYTiO4
mp-645375,-2.072670643,ZnBi6P2O15
mp-541694,-0.417334528,K2Na3SiP3
mp-703293,-0.955752011,P5HC(NCl6)3
mp-10062,-2.692249813,Ba2NdNb(CuO4)2
mp-758031,-2.590041477,Li4Sn(PO3)6
mp-962064,-0.005191913,NaYSn
mp-505177,-2.570495695,TiIn2O5
mp-777990,-2.861163859,Tm2Sb2O7
mp-775998,-1.858302847,Li4CrBi(TeO6)2
mp-6457,-3.707627323,La2MgTiO6
mp-7046,-2.174434215,RbDyS2
mp-583213,-0.315723346,HgI2
mp-13037,-0.589912815,TmGe2
mp-18189,-0.621444991,LiTmSn
mp-1013807,-1.734284587,Li3Co2(GeO4)3
mp-753966,-1.35998261,Li6CrS4
mp-5348,-2.466307764,MgCO3
mp-757331,-3.961074306,Gd3Y5O12
mp-555315,-3.256513069,Zr3Cd3AgF20
mp-761288,-2.405991803,MnBO3
mp-29110,-0.481463003,Al2(FeSi)3
mp-561722,-1.624481875,CsTmCoS3
mp-757826,-1.531970776,CsCa(NO2)3
mp-771883,-2.864759688,Sr3LaCl9
mp-1019541,-3.021115304,BaCa3O4
mp-20136,-0.589076753,BaPb
mp-800,-0.653417074,TmB2
mp-625455,-1.377787231,NaH9O5
mp-4206,-0.657931622,UAs2Pd
mp-686028,-3.230814925,Sr6Nb2O11
mp-4563,-0.439530416,Ti3TlC
mp-1018690,-0.554396718,ErZnGa
mp-759333,-3.118902462,Na7Ti11O24
mp-642787,-3.232121324,Y2V2O7
mp-765486,-3.401473244,PrAl22O34
mp-758243,-3.175176748,TiNb2O7
mp-762164,-1.855837513,Li4Nb2Co3Ni3O16
mp-542454,-0.270644667,Mo2As3
mp-9839,-3.485304087,K2LiAlF6
mp-720921,-1.617277721,Na2Te2H4O7
mp-2213,-0.069030045,FeNi
mp-570566,-0.42081792,Rb5Ta(TlAs2)2
mp-7263,-0.847943792,CaGaN
mp-977397,-0.728450546,TbCdPd2
mp-10245,-0.508082945,Hf3(CuSi)4
mp-976597,-0.409658696,Ho2Co7B3
mp-763959,-1.969810141,Li3Mn3FeO8
mp-4788,-1.669873262,K(OsO3)2
mp-252,-0.36422916,BeTe
mp-778510,-2.91595706,LiFeF4
mp-765413,-2.091424374,Li2AgF6
mp-1019713,-2.812891119,Cs4Si3O8
mp-770219,-2.431837711,NbAsO4
mp-1659,-0.099631548,ThRe2
mp-24469,-3.153340985,CaAl4Si2(HO6)2
mp-675758,-4.237792949,Sr2LaF7
mp-15325,-0.632403878,BaAs3
mp-631578,0.622567915,BeSbAs2
mp-676154,-2.496319294,Yb(DyS2)2
mp-568925,-0.214714229,Ni2Sn4Au
mp-557777,-3.314380654,K2ScSi4O10F
mp-762012,-2.250299586,LiNiPO4
mp-696946,-1.954297153,BaSn2(HO2)2
mp-559689,-3.202185137,LiAlSiO4
mp-976150,0.198260731,NaAl3
mp-21855,-0.488969403,VCu3Se4
mp-998744,-1.239085831,TlGeCl3
mp-5537,-2.198572047,NbAgO3
mp-36033,-4.096903537,PrOF
mp-714932,-2.4891829,V5O9
mp-574485,-1.049729842,Cs4Ga2Se5
mp-679406,-1.875818626,K2HS2NO6
mp-772852,-2.219502807,Na3Zn4P4H4NO16
mp-779593,-2.024253513,Na5LaO4
mp-11359,-0.087480563,Ga2Cu
mp-28290,-1.548863559,CdTeO3
mp-1009822,1.293996748,SnC
mp-654109,-0.872382267,BaCu4S3
mp-976422,0.855671235,Hf3C
mp-865924,-0.535422578,LiZrAu2
mp-753557,-1.771532177,Li2CuSbO5
mp-7889,-3.016035894,Sr2YReO6
mp-19262,-2.148604969,Cr2CdO4
mp-972479,0.040855214,Sm3Sc
mp-29914,-0.675810992,Er7(NiTe)2
mp-721702,-1.740181375,Zn2AsHO5
mp-30541,-0.315105915,Nb(NiP4)4
mp-21202,-0.272639573,Sm3In
mp-778819,-2.992123543,LiMnF3
mp-27828,-2.230792123,Cs2TiCl6
mp-637427,-0.63583544,PrIn2Pd
mp-24500,-1.386202716,ZnH12SeO10
mp-579536,-1.070501002,CsCu2ICl2
mp-769470,-2.23248415,Li11Fe(WO4)7
mp-867138,-0.604019989,EuSnAu2
mp-568208,-0.925591692,IrCl3
mp-20395,-0.470347573,VAsRh
mp-705002,-2.641862642,Li3V4P9O32
mp-705416,-1.71592301,Fe3O4
mp-569426,-0.239446142,SrZn2
mp-11644,-0.013291728,Li2Ca
mp-1128,-0.685699664,SiIr
mp-570702,-0.247760957,Sm2Cu4Sn5
mp-864877,-0.410160589,Hf2CoRe
mp-757745,-2.487215336,Ba4In2O7
mp-560114,-4.405214924,Er3O2F5
mp-975857,0.151889713,K3Mg
mp-4693,-3.650745352,RbAlF4
mp-676145,-2.286061829,Lu(HO)3
mp-744527,-1.293517774,CoP2H17N4O9
mp-862742,-0.529521394,Pm2ZnGe
mp-27844,-0.432949789,NiP
mp-28804,-2.185496398,TcO2F3
mp-8176,-1.331090189,RbTlO2
mp-571334,-0.009477131,PrCo3
mp-768169,-2.664065721,Li3CaPCO7
mp-772600,-1.703809884,Cd(FeO2)2
mp-974843,1.433947353,Rb3Os
mp-760381,-0.51692745,CuS
mp-16978,-2.718184838,Ba3MgSb2O9
mp-998512,-1.376000884,InPbCl3
mp-763315,-2.021803896,Co2OF3
mp-34292,-0.284043961,Tl9SbTe6
mp-760304,-2.209940368,Li2Cu2F7
mp-698025,-2.682680974,Na2Si3(HO4)2
mp-707176,-2.860740409,NaCa2Al2P2H5O11F4
mp-553897,-3.396851844,Ba2Si3O8
mp-554808,-1.365304305,SnH22(Cl3O5)2
mp-151,0.02371186,Tl
mp-682067,-3.209935489,KCaNb2O6F
mp-637188,-1.356250619,Ag2WO4
mp-11286,-0.561235582,CaHg
mp-863035,0.186430467,PuSb3
mp-715811,-1.826298927,Fe3O4
mp-680246,-1.572212565,Cs4Zr3S14
mp-22941,-0.463987433,CaCuBi
mp-510557,-0.432526018,CsN3
mp-758743,-2.337651676,Li2CuSiO4
mp-542596,-0.623812954,Hg(SbS2)4
mp-720407,-1.188371436,KH(IO3)2
mp-770078,-2.197251988,LiMnPCO7
mp-646920,-0.366803684,K5(AsPb)3
mp-764326,-1.666655326,Fe12O13
mp-979267,-0.16167542,Ta2FeMo
mp-779001,-3.736253451,Sr4Hf3O10
mp-541966,-1.666930077,KAgCO3
mp-768068,-1.864997216,Li2MnFe3O8
mp-989619,-0.830648707,LaTcN3
mp-19319,-3.066368178,ErMnO3
mp-11816,-0.470754687,BaCdGe
mp-619905,-0.446823157,Ti9Se2
mp-763029,-2.185209839,FeOF
mp-768058,-2.32012656,Na2MnPCO7
mp-10478,-1.150948534,CeAsRh
mp-759230,-3.375924855,NaAl11O17
mp-11206,-3.153455617,LiTi(SiO3)2
mp-705094,-1.533246885,Co2As2O5
mp-570549,-0.071633888,AgBiTe2
mp-18192,-0.566518671,Sr3Sn5
mp-625661,-1.261080597,H9BrO4
mp-976872,0.529399361,NaNi3
mp-30600,-0.199544472,TmCu5
mp-30190,-0.53743243,UMo13P9
mp-21481,-0.343599004,Pr3Pb
mp-12533,-4.065994049,La2Hf2O7
mp-675418,-0.431182701,BH6N
mp-1002197,0.719593289,RuN
mp-675831,-2.700091668,Bi2Pb3F12
mp-779413,-2.784854346,BaP4O11
mp-554869,-2.76282671,SrGeO3
mp-16605,-3.656256637,Sr2TmTaO6
mp-752685,-2.630905206,ZrBiO4
mp-571495,-0.559133433,LuB4
mp-9740,-3.08122538,BaDy2PdO5
mp-8645,-0.01891347,GeTe7As4
mp-19206,-3.260042088,LiLa4CoO8
mp-761108,-2.144626202,BiOF