id,band_gap,pretty_formula
mp-24570,3.9653,Be3As2(H2O5)2
mp-707218,4.0392,Ba3AlHO4
mp-684534,2.229,LiNbP4O13
mp-772758,3.9583,Sm2Zr2O7
mp-559287,0.6225,Ho2Sn3(PbS4)3
mp-18196,0.7844,Ba(TmTe2)2
mp-31760,2.1089,Sr2TaFeO6
mp-19511,3.0546,Li5FeO4
mp-17833,0.368,Ba3GeO
mp-567334,2.6955,Ag(BCl)6
mp-4024,0.9162,DyAgTe2
mp-5588,7.3825,BaSiF6
mp-755980,3.8183,SrCaI4
mp-696752,5.602,KP(HO2)2
mp-6686,5.2445,K2NaInF6
mp-570836,0.952,K5Ag2(AsSe3)3
mp-743873,1.8424,SrLaMnSbO6
mp-553303,1.4572,CsCu3O2
mp-28211,1.8439,IrS3Cl11
mp-752693,2.4533,Ba3(ClO)2
mp-554475,2.5637,LaNb2ClO6
mp-9676,0.8054,K2NaGaAs2
mp-27171,1.7964,Hg2P2S7
mp-989642,2.1454,Cs2NaAlH6
mp-16870,1.5746,Ba2CdSe3
mp-627418,2.946,Ge7H18O23
mp-14476,1.387,LiRhO2
mp-669311,0.8149,In7Te10
mp-559200,1.0566,Cd(InS2)2
mp-753721,3.3747,GdOF
mp-27926,3.3537,AsClF8
mp-557355,5.1666,Rb2SiP4O13
mp-758536,0.7236,KAl2P2H4O11
mp-554430,0.4362,NaCu(IO3)3
mp-558059,1.8523,LiMnF4
mp-28150,2.6145,BaNb2O6
mp-753741,1.9039,Li3CuS2
mp-7258,2.341,K4SnO4
mp-2247,1.5981,AgN3
mp-775301,2.0893,LiV(Si2O5)3
mp-645663,1.474,Te2Mo3Se7Br10
mp-4701,0.1778,CuSnF6
mp-764518,1.394,LiFe8(BO3)8
mp-770552,0.3241,Li4Ti2Cr3Ni3O16
mp-771059,1.6598,Li4Nb2Co3Sn3O16
mp-644827,1.7979,TePCl9
mp-581955,3.2271,CsSi2SbO7
mp-682,6.204,NaF
mp-777566,2.171,LiVF4
mp-27308,2.6921,SbBrF8
mp-763217,3.9563,LiNiPO4
mp-778405,2.9965,LiFe2F5
mp-22524,1.5862,CeP2O7
mp-758068,2.2465,K2Yb2O3
mp-684580,1.3146,AgI
mp-17886,0.9992,K2Al2Sb3
mp-189,0.2265,SiRu
mp-771843,2.8782,Mn3(PO4)2
mp-19328,0,NaWO3
mp-12146,8.3114,CaB2F8
mp-733862,5.2306,KCaP3(HO2)6
mp-568896,2.6086,La(AlBr4)3
mp-557655,0.8719,GdTlS2
mp-6535,5.1342,NdAl3(BO3)4
mp-14038,1.9531,Rb2NaRhF6
mp-5933,1.727,BaTiO3
mp-764612,1.3779,LiFe2(BO3)2
mp-684028,3.7498,Li3Bi(PO4)2
mp-753912,3.1272,CaTb2O4
mp-780140,0.5902,Li5(CoO2)4
mp-8076,3.0901,Na3SbO3
mp-28663,4.6791,Mg14Si5O24
mp-14070,3.3693,RbAlO2
mp-764769,2.6046,Li4VF7
mp-778147,0.5548,Na5Bi2P(CO4)4
mp-27094,3.3889,LiSn2(PO4)3
mp-10429,4.3253,LaYO3
mp-568742,1.3751,HgI2
mp-558164,4.4454,CaHf4O9
mp-778009,2.4457,LiBi6B3O14
mp-13982,0.3622,CdCu2GeS4
mp-753401,3.1323,Sc2TiO5
mp-9252,1.6835,HgS
mp-778506,2.8544,Li2VF5
mp-562537,0.5469,Ta2Ni3S8
mp-560776,0.2985,Sr3Cu3(PO4)4
mp-867699,2.4743,Li4TiS4
mp-558160,5.2387,NaYCO3F2
mp-19430,2.4666,Li3Fe2(PO4)3
mp-567841,0.8891,Be3P2
mp-768419,3.9278,La(ClO4)3
mp-775204,1.5,Li2V3WO8
mp-19495,3.1121,NdCo(BO2)5
mp-8568,2.3752,Ca4PtO6
mp-759624,3.8769,Li3Bi(PO4)2
mp-743605,0.9956,ZrCrCu2(PO4)3
mp-567373,3.2002,LaCN2Cl
mp-504358,0,LiCr6P7O24
mp-667336,1.0936,Cs4Zr3Te16
mp-758180,4.7963,CsSi3HO7
mp-557753,4.0019,K3PO4
mp-867339,0.3027,CsK2Bi
mp-770379,3.3812,Tm2GeO5
mp-5990,5.078,CsLi(B3O5)2
mp-643061,2.669,Mg3ReH7
mp-19368,3.3868,Sr2V2O7
mp-759486,2.9448,LiNbSn3(PO4)6
mp-561011,3.8345,Li2Ta2(OF2)3
mp-3056,0.6211,NaTlO2
mp-15502,1.0679,Ba4TiP4
mp-15103,3.1359,Sr3Y2(GeO4)3
mp-27394,2.9716,CsSnCl3
mp-974267,2.5338,KH8N3
mp-622018,2.9675,BAs5(Pb3O10)2
mp-557914,4.1043,DyTaO4
mp-780318,0.2781,LiCoOF2
mp-19043,2.0567,LiV(SiO3)2
mp-571347,1.206,Pr3CuGeSe7
mp-36111,1.5647,LiMgP
mp-3677,3.9662,MgSiN2
mp-675918,1.055,Li9CrN5
mp-7476,3.6236,RbDyO2
mp-14193,6.3874,K2ThF6
mp-777522,3.2849,LiFeF3
mp-770738,2.9313,Na3BSbAsO7
mp-569623,0.9606,Nb(SeBr)2
mp-19489,3.1122,SmCo(BO2)5
mp-721328,3.9505,CaAsH3O5
mp-18513,1.0679,Ba2MnSe3
mp-2695,0.3801,Sb2Os
mp-27736,0.4832,Re2P5
mp-19201,0.4786,CaMnO3
mp-772676,3.1921,Sr2WO5
mp-675597,1.1272,Na3NO2
mp-6978,3.6462,RbHoO2
mp-774616,3.6056,H5C3N5O
mp-764505,1.8924,LiFe2(BO3)2
mp-677520,2.459,KBa6Zn4(GaO3)7
mp-19072,3.6153,Si(NiO2)2
mp-12867,1.5554,SrSnO3
mp-763068,1.5192,Fe4OF7
mp-977569,5.0076,NaH6CN2ClO2
mp-557047,3.9523,Cs2NaCrF6
mp-626467,4.0103,Al(HO)3
mp-24103,0.4456,CuH12Br4(NO)2
mp-37520,1.1095,Ca(PrTe2)2
mp-722485,5.3405,SrP2(H2O3)3
mp-745107,1.1022,Ca2MnAl2Si3HO13
mp-759871,4.333,LiBi(PO3)4
mp-878,1.4613,Ho2S3
mp-763933,0.6261,Li3CrFe3O8
mp-11714,2.2433,SiC
mp-554951,4.9485,GaH20C2S2NO14
mp-17207,1.8848,Tl4GeS4
mp-23015,1.0076,Cs3Mo2Br9
mp-9205,3.322,KSeO2F
mp-11695,1.2128,Rb2Pd3S4
mp-707310,4.9236,K2Zn3P4(HO3)4
mp-777041,0.3005,Li4Mn3Co3(SnO8)2
mp-6643,3.0569,BaDy2ZnO5
mp-998535,2.9509,InPbCl3
mp-24389,5.3406,CaPH5O6
mp-557354,3.2236,Tm2Te4O11
mp-696396,5.2718,NaHCO3
mp-24384,5.317,CaH8(ClO2)2
mp-15359,2.8543,GdAl3(BO3)4
mp-28286,4.391,Na3Sb5F18
mp-540223,4.2548,Li2MnP2O7
mp-18500,0.5308,K3Sn4Au
mp-756666,3.9106,BaCaI4
mp-561008,5.5341,Ca(PO3)2
mp-676109,3.3747,Li3InCl6
mp-772861,3.2767,BaSr2I6
mp-989616,0.5679,CaWN3
mp-766359,3.4196,BaCaI4
mp-570668,0.2785,LaSe2
mp-756745,2.1335,BaLaI5
mp-14531,2.2473,NaNb3O8
mp-695892,4.4279,KH(IF6)2
mp-676227,2.6771,Nd2Th2O7
mp-29036,1.7564,Ba(YS2)2
mp-553243,1.3371,YBi2BrO4
mp-616601,0.3711,Ba2InRuO6
mp-775133,0.9946,Li4Ti3Fe3(WO8)2
mp-753816,2.0991,Na6MgO4
mp-8840,1.7742,Na5InO4
mp-15724,0.6721,KNa2Sb
mp-28823,0.7464,Ba4P3
mp-697047,0.5387,Li3H4Rh
mp-605166,3.1224,KDyH2C2SO9
mp-778858,2.161,Na6Mn3(PO4)4
mp-9332,4.1087,KGaPO4F
mp-626173,3.951,HoHO2
mp-555428,2.1063,Sr5(ReO6)2
mp-774964,3.2402,Li2CrP3O10
mp-504943,5.2202,KNaP2H2O7
mp-975577,3.8549,K3La(AsO4)2
mp-627632,5.1536,Si4H2O9
mp-755216,2.4683,TmBiO3
mp-35795,4.2571,BiPbF5
mp-758810,3.4454,LiBi2P3O11
mp-554203,4.4119,Li4Ga3Si3ClO12
mp-605344,2.7471,ZnH4SeO6
mp-560685,3.155,K2Ge(IO3)6
mp-505284,2.3839,Pb3(BrO)2
mp-558240,5.4555,K3Al4P2O8F9
mp-996959,1.5361,LiAuO2
mp-989547,3.0533,Rb2NaInCl6
mp-773170,0.5693,Cr3SbO8
mp-7441,1.0307,KP
mp-780436,3.0049,Li8Mn5Fe3(BO3)8
mp-18224,2.8402,Rb6Ge2O7
mp-18973,2.3763,CoSe2O5
mp-780586,0.96,LiCoP2O7
mp-667374,4.5419,NaAlSiO4
mp-32309,1.8627,Sr4Re2NiO12
mp-24267,4.9641,ZnP4H16(NO8)2
mp-37036,1.6969,Bi2O3
mp-568379,1.3747,KInSnSe4
mp-705497,3.1938,Ga2P2H9NO11
mp-759728,2.7587,Sb7(O2F3)3
mp-2883,2.703,Sm2Sn2O7
mp-555837,4.2187,Rb6Si10O23
mp-571442,3.0409,YI3
mp-669348,2.2169,NbTeCl9
mp-29090,1.698,Rb4Au6S5
mp-17633,2.5552,Er2SiSeO4
mp-556812,4.5145,SiO2
mp-771306,5.3786,Dy2P4O13
mp-770423,1.35,Mg2Mn3O8
mp-12326,2.4736,CaZn(GeO3)2
mp-769653,1.4722,Li2TiFe2O5
mp-559530,2.8913,Ti5(PO5)4
mp-667338,2.2793,PbN6
mp-778369,1.5402,V3OF11
mp-20620,3.3486,Ba2NbInO6
mp-1019893,2.9739,La3Si6N11
mp-22904,5.3548,CaCl2
mp-977014,1.6311,H5PbCI3N2
mp-10474,7.0089,NaPF6
mp-972216,3.6073,Sr2SmSbO6
mp-559977,5.357,KNd(PO3)4
mp-764273,3.6503,Na2LiMnPCO7
mp-676333,1.5737,Ga11NO15
mp-19000,1.7309,VPO5
mp-720971,4.3306,Ca12Al11Si3Cl5O32
mp-559434,5.2757,Tb(BO2)3
mp-554783,2.3254,KUN3O11
mp-684497,4.6458,LiBi(PO3)4
mp-762268,1.2497,Li3V2O6
mp-17673,5.6394,Lu3O2F5
mp-754061,2.8482,Na3SnPCO7
mp-6684,2.9166,NaCdPO4
mp-4387,3.6241,SrZrO3
mp-557264,5.4327,SiO2
mp-759244,3.2272,Li12Nb14ZnO42
mp-24546,3.2742,MgH2(SeO4)2
mp-27539,1.0235,La2ReO5
mp-772760,4.0492,Dy2Zr2O7
mp-11719,0.9472,K4ZnP2
mp-778352,2.9835,LiFeF4
mp-4340,5.8816,TbPO4
mp-554097,1.6739,Sm3CuSiS7
mp-640324,1.1231,TmCuPbSe3
mp-997106,0.5141,AgRhO2
mp-22957,5.9367,SrClF
mp-762679,1.0262,V(TeO3)4
mp-774309,0.366,Li2MnV(P2O7)2
mp-10096,0.7489,Na3Sr3GaP4
mp-705468,0.6453,Li3Mn3(PO4)4
mp-989579,1.5623,Rb2LiTlCl6
mp-723093,1.8002,Na5H29(IO12)2
mp-757885,2.648,LiSnPO4
mp-772004,0.7909,Li3Co3TeO8
mp-570132,2.6847,Mg8B5IN10
mp-581696,1.2615,CsLu2Cu3Se5
mp-18129,2.5859,La2ZnGa2S6O
mp-6333,3.4821,NaIn(SiO3)2
mp-28022,4.0214,Na6CdCl8
mp-766505,4.0307,RbH2O2F
mp-547792,2.6599,KSbO3
mp-29718,2.6778,AgW3Br7
mp-766422,1.6687,Li3BiS4
mp-504600,4.9179,NaH4ClO2
mp-559346,2.1456,K3Nb3Si2O13
mp-18136,1.7987,UTl4C3O11
mp-560665,1.937,LaPb6BrO7
mp-557539,3.5744,MoF3
mp-558753,4.1964,BiB2O4F
mp-574279,0.3414,TlIn5Se7
mp-604295,2.0771,HgH16(Br3N2)2
mp-766856,0.8371,CuPO3
mp-669353,2.8284,Cs2TeO4
mp-766828,2.0088,Li4Ti15O32
mp-37233,1.6896,Nd2CdS4
mp-18903,3.5457,Sr2CdWO6
mp-541581,4.9636,KSO3
mp-770905,1.1523,LiMnAsCO7
mp-625316,4.9558,Al(HO)3
mp-707208,2.8521,H8C2SeS2(N2Cl)2
mp-18998,1.3409,Sr4Mn3O10
mp-679971,2.522,TiSi4(NCl7)2
mp-13907,3.8554,CdSnF6
mp-850414,5.988,LiB3P(HO3)3
mp-28693,1.9643,Al3Te3I
mp-1019809,4.9489,KBe2B3O7
mp-756392,1.9408,LiCuSi2O5
mp-24426,1.4815,HgH2SeO5
mp-756683,1.0419,HfBiO4
mp-27537,1.8037,Na2TeO4
mp-765677,0.8329,Li6V5SbO12
mp-770218,0.6365,ZnIn2O4
mp-561446,3.0644,BaCa(GaO2)4
mp-721017,4.5387,Na2Te(H5O4)2
mp-6712,3.6236,NaLuGeO4
mp-6623,3.6774,Rb2Cd2(SO4)3
mp-554623,3.1287,Sm2Ta2Cl2O7
mp-766370,2.2682,CeZr9O20
mp-768072,0.9575,NaMnPCO7
mp-652274,3.3452,Ge2RuC4(Cl3O2)2
mp-771216,3.361,Sr3(AsO4)2
mp-754798,0.6068,Bi2SeO6
mp-556665,2.183,TlBiP2S7
mp-770528,0.2492,Li5MnO4
mp-5730,4.7852,Ba(BO2)2
mp-1019785,5.2762,K2Si(S2O7)3
mp-557268,3.9726,KLi4AlO4
mp-645513,3.4478,HfTl8(MoO4)6
mp-24440,2.2043,Na3SbH18S4O9
mp-8696,3.5404,K3Na(SeO4)2
mp-13868,0.6853,PdF4
mp-625583,3.7349,H7BrO3
mp-675524,2.4583,CsPbCl3
mp-16108,4.0879,Cs3P6N11
mp-18853,2.1318,TlV2AgO6
mp-667295,2.9374,Cs7Cd3Br13
mp-558403,2.4694,P2Pb(XeF6)3
mp-558490,4.0674,Tb3Se2ClO8
mp-643697,1.6939,Rb3MnH5
mp-7500,3.2221,Na4SiO4
mp-720571,5.1822,CaH8(ClO2)2
mp-15845,0.8923,SrLi4N2
mp-17980,1.4128,K2MoS4
mp-766885,2.2365,Sb3PO7
mp-29155,4.2305,TlB3O5
mp-780360,1.8545,Na8Gd2O7
mp-767518,4.3432,Na2ScPCO7
mp-720118,3.0068,Sr3Nd10Al12Si18(N2O)18
mp-715457,0.358,V4O7
mp-558910,2.1409,Li2U3(PO5)4
mp-551826,1.256,NbTlBr4O
mp-17065,4.707,Ho2SiO5
mp-1014013,0.8838,P
mp-23859,3.8464,CaHCl
mp-546321,1.7308,Ba2NdBiO6
mp-698648,0.4043,K3(MoO3)10
mp-4818,1.2493,Rb2Sb4S7
mp-557362,5.5478,AlPO4
mp-28433,5.4768,RbClO4
mp-767431,4.0529,Na3SrPCO7
mp-766142,0.9247,LiFe5O5F
mp-676284,0.7142,YAgSe2
mp-4287,2.6465,Sr2SnO4
mp-19420,3.4284,Sr2MgWO6
mp-32642,2.0515,Lu2S3
mp-777778,1.7448,Li2VO2F
mp-770513,0.9122,Li8Mn2O7
mp-2758,2.231,SrSe
mp-780162,0.5825,Li4Ti3(CoO4)3
mp-12532,1.2737,KAg2PS4
mp-675492,6.0367,SrLa5F17
mp-684024,3.8508,Li2SiN2
mp-775194,1.2746,Li2Fe3WO8
mp-29070,1.7551,La5C2Br9
mp-778052,3.0283,Sm2TeO6
mp-554831,5.1816,Yb4Cl6O
mp-9845,1.2979,RbCaAs
mp-557833,0.6463,Ti(Ag4S3)2
mp-29381,1.0605,Na2Te2As
mp-1019513,5.6298,AlPO4
mp-5251,1.7909,Ca4CN4
mp-18595,0.7768,LuCu(BO2)5
mp-557605,1.6592,Hg2Pb(SI)2
mp-15790,2.007,LiHoS2
mp-600026,5.153,SiO2
mp-1018098,1.1673,Ba2BrN
mp-774426,2.5975,Nb3Cr(PO4)6
mp-705553,1.2763,Fe23O25
mp-557863,1.8307,K2Ag4Pt3(NO2)12
mp-23492,2.3514,Si(Bi3O5)4
mp-505679,2.6503,HfV2O7
mp-570875,0.6744,Ga2Os
mp-757150,1.5701,Li5BiS4
mp-696853,3.64,CaZnSiH2O5
mp-722275,0.4314,CuH20S2(NO7)2
mp-626720,4.2072,BaH4O3
mp-28168,0.6551,Th6CBr14
mp-9759,2.2499,BaPr2PdO5
mp-770566,1.7691,Be(FeO2)2
mp-765046,0.9155,Li4V2OF7
mp-753821,3.6286,Pr3GaO6
mp-10419,2.4373,Na4ReN3
mp-775331,1.4973,LiVO2
mp-864755,0.5982,LiAcTe2
mp-19182,3.2724,Ba2CaWO6
mp-862605,1.2656,Rb4Zr6CCl18
mp-770836,3.6439,Ba5Sc6O14
mp-744181,2.6899,K2Cr2AsHO10
mp-28554,1.5719,Ca2AsI
mp-7756,0.6858,SrLiSb
mp-684677,3.9676,Al2O3
mp-626046,3.2664,H7NO6
mp-17913,2.584,Tb2SiSeO4
mp-555843,1.6903,Ag3AsS3
mp-763558,0.7807,LiV2(CO3)4
mp-556307,4.4454,Na2Si2O5
mp-571232,4.4692,YbBr2
mp-780260,1.121,TiGeO3
mp-541860,2.9418,TiAs2H4O9
mp-4533,3.861,Na2SiO3
mp-558121,1.5569,K4Ba(VS4)2
mp-7264,5.4769,Nd(PO3)3
mp-5116,3.0731,K6Ge2O7
mp-766094,2.8995,NbO2F
mp-26271,4.0623,Li2Sn(PO3)4
mp-762304,3.176,BiOF
mp-618807,2.5368,KSb(MoO4)2
mp-9760,2.03,BaTb2PdO5
mp-754550,3.402,Tb3TaO7
mp-4535,3.3949,PrGaO3
mp-20254,0.7,Na2Te2O7
mp-4236,2.2711,BaZnO2
mp-17103,3.0855,Sr3Ta6(Si2O13)2
mp-865500,1.9701,Na2Hf2O5
mp-998604,3.2697,RbPbCl3
mp-757101,0.7913,Li2Cu(Si2O5)2
mp-557180,2.5747,CaAs2(XeF5)4
mp-861884,0.5545,AcGaTe2
mp-757142,0.9699,LiNb(PO3)4
mp-764554,1.3078,Li5Fe8(BO3)8
mp-560847,1.3206,Nb2TlPS10
mp-765227,2.6633,Li6Sn5(P2O7)4
mp-707068,5.1548,KH8O4F
mp-767262,3.657,Li12Mn3FeP4(CO7)4
mp-568661,0.7711,Cd(InSe2)2
mp-23215,3.6695,ThCl4
mp-34486,1.5889,Pr5AgS8
mp-10560,1.7432,Sm3AuO6
mp-559234,5.0459,CsLa(PO3)4
mp-771830,2.9647,Sr2YI7
mp-971632,0.2108,GaP
mp-772578,0.704,Li2Mn3SnO8
mp-772820,3.8741,SrLu2O4
mp-561437,4.0658,Al2Ge(O2F)2
mp-27994,3.1924,HgBrO3
mp-505392,2.9456,Ba3V4O13
mp-644285,5.0845,KAlH2CO5
mp-555164,5.4052,Ca5P3ClO12
mp-676725,2.0609,Lu3NbO7
mp-6040,5.495,BaBPO5
mp-760599,1.6608,TiSn(PO4)2
mp-622640,0.996,V3O7
mp-16594,3.688,K3TbSi2O7
mp-36592,1.4982,Nd5AgSe8
mp-780522,2.7243,LiVP3H8O13
mp-558039,3.6369,Sr2HoSbO6
mp-765567,5.6941,Li4P5HO15
mp-849223,1.4546,LiNb(TeO4)3
mp-18991,0.2861,Ba(NiO2)4
mp-30026,3.1716,Sr3Te4O11
mp-772666,2.4336,Li2Cr2O7
mp-6015,5.2547,LiSiNO
mp-23011,5.3151,RbClO3
mp-614572,0.9886,Ca3InP3
mp-12181,1.6233,BaSnS2
mp-4280,0.9833,GaCuO2
mp-771253,3.6352,Sm2Zr2O7
mp-561126,2.548,Nd3Si2S8I
mp-634977,0.5021,Cs3Fe2Cl9
mp-697744,1.5734,LiMnP2O7
mp-780724,3.6412,LiSbP2O7
mp-850993,2.7476,LiMn4(PO4)3
mp-20793,0.3545,Ga2FeS4
mp-773190,1.5465,Na2VBAsO7
mp-672958,4.0476,LiSb(PO3)4
mp-778800,3.5515,LiMnF3
mp-675324,4.1101,BaCO3
mp-19146,2.0467,CrPbO4
mp-849541,1.2148,Li2V2F7
mp-560585,2.244,P3IrO9
mp-2956,0,Co2(GeS)3
mp-30275,0.8122,BaP8
mp-29516,1.0144,Bi7RhBr8
mp-556014,4.1607,Li3Ga(BO3)2
mp-864879,2.3155,NbC2NCl8
mp-505814,1.4197,CsBa2Nb3O10
mp-769596,0.9044,Li3V3CrO8
mp-754943,3.1234,ErBiO3
mp-556908,3.6757,Nd5As4(ClO4)3
mp-28365,1.9745,Na3AuO2
mp-759924,2.6584,Bi14SO24
mp-27893,3.7727,B5H9N
mp-18421,2.7735,Ba2Ga2S5
mp-735535,4.0458,NiPH6NO5
mp-34857,2.4555,KNO2
mp-28108,0.9417,Na4SnTe4
mp-705472,0.9448,AsS
mp-768889,3.0795,YHoO3
mp-776669,1.3638,Na7Co3O8
mp-558381,1.5898,PtCI2O
mp-570135,1.6483,SnHg7(P2Br3)2
mp-755586,3.2411,NaLaO2
mp-558071,1.7029,RbS
mp-770806,3.3039,Sm2TiO5
mp-763292,0.6119,Ti3Mn3(SbO8)2
mp-756422,0.6418,Li4CuSi2O7
mp-554267,5.6178,SiO2
mp-29524,2.9553,K3BiO3
mp-669508,2.864,TaP2NCl12
mp-625256,2.2206,H5IO6
mp-11019,0.7845,GaCuO2
mp-27197,3.1916,Na4As2O7
mp-573755,1.2961,CsTeAu
mp-5929,1.328,Na5SiP3
mp-15543,5.2029,NaLiZr(Si2O5)3
mp-9675,1.6848,Cs3BP2
mp-10547,1.4187,RbAuO
mp-18952,1.2893,Ca4Mn2O7
mp-556786,3.2207,LiCdPO4
mp-743697,2.942,MgZr3Tl10(MoO4)12
mp-752713,5.4414,HoBO3
mp-559692,3.5607,Ta2Cd(P2O7)3
mp-625873,2.9371,Ba(HO2)2
mp-5309,2.4169,KAuF4
mp-17524,0.7104,GeAs2
mp-771139,2.741,Cs4HfO4
mp-961712,1.0489,TaTlPt
mp-9382,0.249,SrZrN2
mp-2488,0.5177,SiOs
mp-3622,1.2475,Na2PdF4
mp-16998,2.1591,Ba2Nb6Te2O21
mp-569580,2.8344,NaLa4I7N2
mp-557256,4.565,RbP3PbO9
mp-553958,3.3335,Zn3(PO4)2
mp-6647,1.3283,BaYAgSe3
mp-3432,0.2695,ScNiSb
mp-28439,5.721,KSc2F7
mp-28683,1.1791,Ta(ICl)2
mp-1019888,1.8172,KNa2BN2
mp-774105,3.3457,Ca5Ge3O11
mp-531238,0.627,Cd(GaO2)2
mp-554023,6.356,Be2BO3F
mp-759435,0.3973,LiCu(PO3)3
mp-558571,2.9535,Sc2Te5O13
mp-17853,2.8953,YGaO3
mp-557952,3.8119,RbInP2O7
mp-769478,1.0859,Li4Ti4V4CoO18
mp-667323,1.9741,Mg(GaS2)2
mp-7891,0.8711,Mg3As2
mp-770681,0.2035,LiCr10O15
mp-555108,5.013,PH9C(NO)4
mp-10299,1.7922,Ca4PdO6
mp-542426,0.4446,CuHgSI
mp-542831,3.0204,Gd2SiO5
mp-752927,1.6826,LiAgF2
mp-561108,3.5096,Y(IO3)3
mp-768539,0.7377,AlTlO3
mp-628631,1.3081,GdBi2IO4
mp-560458,1.6672,Rb2U2O7
mp-1019528,5.2119,Ba2Mg(BO2)6
mp-555156,2.268,MnCrF5
mp-768695,2.9749,Ho2Ti2O7
mp-28107,0.9884,Na4Ge2Te5
mp-6841,1.0292,Ba4NaCu(CO5)2
mp-669455,0.8558,Ga4Hg11(AsBr4)4
mp-530146,4.1234,MgAl2O4
mp-505222,2.2227,CdInBr3
mp-549589,0.576,LaZnAsO
mp-13001,3.3832,Ba2HoTaO6
mp-8416,5.8537,BaCaGaF7
mp-18718,0.487,Ca(NiO2)4
mp-19175,2.4762,MnSe2O5
mp-16956,4.6575,Na3Sc2(PO4)3
mp-556458,4.1265,BaCa(CO3)2
mp-686617,2.9399,Nd10Si10N17ClO9
mp-504752,0.0064,Fe3BO5
mp-29007,4.1234,P4(SO2)3
mp-619032,1.7814,PbCN2
mp-775006,0.573,Mn2CrO6
mp-669474,3.1786,RbTeNO3F4
mp-555514,0.8058,OsOF5
mp-760650,3.4528,Li3Bi(PO4)2
mp-642824,5.9606,SF6
mp-568284,3.8014,SrI2
mp-754172,1.0174,La3Ti2N3O4
mp-559219,4.1079,Zr(PO3)4
mp-5838,3.0012,Ba2SiS4
mp-764514,1.5879,LiFe2(BO3)2
mp-19212,4.4507,Rb2MoO4
mp-622000,3.1419,Cs3Sb2N3(O3F2)3
mp-8346,3.7065,Lu2Ge2O7
mp-24645,3.7167,Er(HO)3
mp-23517,2.4562,RbPbI3
mp-654301,2.5661,Nb5P7O30
mp-721246,0.3003,Sr6CoC2N7
mp-23771,4.1122,SmH3(CO2)3
mp-694534,1.5169,LiFeP2O7
mp-755183,1.5399,DyTlO2
mp-759734,3.5362,Li3Bi2(PO4)3
mp-31940,3.3423,LiMnPO4
mp-504576,0.7823,OsOF5
mp-863430,0.658,Zn3In2O6
mp-19383,2.465,Ti4Mn(PO4)6
mp-31418,1.4864,La(SbO3)3
mp-9872,1.1383,K4BeP2
mp-17088,2.3896,KBaPS4
mp-560964,1.6795,K3Sm(AsS4)2
mp-19727,1.752,PbCN2
mp-708984,4.8131,NaH5CO4
mp-10781,1.3089,RbGdSe2
mp-771196,0.8603,Li8Mn12Ni4O31
mp-699346,3.0534,LiCo2(PO3)5
mp-721415,0.5329,CuH12N2(Cl2O)2
mp-24239,5.5321,K(BH)6
mp-19992,1.9787,La6UO12
mp-29877,5.2176,K2ReH9
mp-673848,1.6307,Ce2Dy2O7
mp-25262,1.7121,TiO2
mp-29775,1.5822,Sr4PdO6
mp-867180,2.4279,Pm2S3
mp-695946,0.6315,NiH16C4S4(N4Cl)2
mp-782720,0.8766,LiTiV3O8
mp-1020724,4.7512,Na7Al4P9O32
mp-850103,1.4027,Li4V5(FeO6)2
mp-774185,0.3493,Mn6OF11
mp-780849,0.6117,LiMn2Cr2O8
mp-744574,2.948,CoH6(SeO4)2
mp-971694,0.5271,Ge3N2
mp-555893,1.5892,Pr3CuSiS7
mp-10802,0.5851,RbAs
mp-770383,2.2954,Li2Cr2(SO4)3
mp-556676,3.258,Na3Al2(AsO4)3
mp-626550,2.8398,Ti3H2O7
mp-643346,3.8717,Al2Ge(HO3)2
mp-19270,2.0297,TiFeO3
mp-22457,5.2936,K3Na(SO4)2
mp-570324,2.1286,Rb2TeBr6
mp-1056,3.9006,Tb2O3
mp-6433,0,KNd(PO3)4
mp-4396,3.6154,Ba(NO3)2
mp-755831,1.1834,BrClO
mp-769380,2.7487,Li2TiSn3(PO4)6
mp-755752,2.2055,Rb2Be2O3
mp-636461,2.177,Ga2Ge4Pb3O14
mp-572596,1.7068,TlIn3S5
mp-504667,4.6407,RbIn(WO4)2
mp-762222,0.9765,Li2CuF4
mp-31909,2.3214,Ta2Mn3O8
mp-29525,3.1118,Rb3BiO3
mp-978852,0.4522,SrGaSnH
mp-9069,1.0276,K2NaAlAs2
mp-771816,2.2513,Gd3NbO7
mp-28569,2.8099,NaInBr4
mp-753671,5.0708,PNO
mp-762413,2.9729,Li3CrSiO5
mp-764233,0.9553,Na8CoO6
mp-19931,6.6702,Na2MgAlF7
mp-777918,0.5449,Cr3Sb5O16
mp-6738,6.1147,Al6B5(O5F)3
mp-628647,0.9063,TlHg3As2Cl3
mp-27595,1.0693,K2ReF8
mp-555576,5.2189,KNaS2O7
mp-561502,2.2188,Ba8B5N10F
mp-757836,4.753,BeH2SeO4
mp-30325,3.4656,In2(Se2O5)3
mp-568397,1.92,CuMo3Cl7
mp-8686,2.0215,Na3AsSe3
mp-754645,2.592,MgCl2O
mp-15201,0,Pr2Ti2O7
mp-766103,0,Li7Zr3Nb(TeO6)4
mp-669540,2.079,K2PtN4(ClO4)2
mp-757333,4.5454,Al12PbO19
mp-557930,5.6497,SiO2
mp-27984,4.6985,PrClO
mp-763339,1.1169,Fe7(SiO6)2
mp-849667,0.2419,Li4Co5O9F
mp-707746,4.9624,CaAl2Si3H6O13
mp-555023,4.5897,KCa4(BO3)3
mp-777963,2.1609,Li3SbH18S4O9
mp-570443,1.822,Tl2CN2
mp-558162,5.1966,RbP(OF)2
mp-976402,3.0249,NaZnAs(H2O3)2
mp-694884,0.2897,KFeH5(SO5)2
mp-29081,4.0587,P4SO7
mp-541108,4.0752,Cd2Si(P2O7)2
mp-29208,0.3886,Ca(MgBi)2
mp-37741,1.7602,Ba(LaSe2)2
mp-561619,2.1886,CsLuS2
mp-768931,2.0817,Ga10Si2O19
mp-721294,5.5723,NaB5(H2O5)2
mp-3688,2.6793,Er2Sn2O7
mp-774048,1.926,Fe4OF7
mp-28080,0.5733,K2SnTe5
mp-554824,0.548,La3RuO7
mp-35031,0.9539,Pr5CuSe8
mp-560739,2.6949,K3Li3TeO6
mp-650960,5.2202,Hf(ClO4)4
mp-19039,2.4709,CdMoO4
mp-581862,4.4574,Cs2NaAl(PO4)2
mp-772588,1.9401,Li2V5B3O13
mp-743638,2.9796,Li6Ti8Ni(PO5)8
mp-617543,2.7456,Th(InBr3)2
mp-779891,2.6056,Li6Mn5Fe(BO3)6
mp-10408,3.1453,K2CN2
mp-1019516,1.1839,Ba4GaN3O
mp-705034,1.882,CrPb5O8
mp-1019603,4.6544,Cs2BaP2O7
mp-765411,3.3036,Li3CrSiO5
mp-9036,1.2715,KSmTe2
mp-771691,1.783,CaPbI6
mp-6408,0.3373,ZnCu2GeS4
mp-760863,2.4039,Na4Ti7O16
mp-19426,4.3435,CaWO4
mp-560891,3.0736,SnP2Cl8O3
mp-8627,0,SmBO3
mp-850989,1.7371,V2(OF)3
mp-752674,7.0887,BaY3F11
mp-849990,0.3151,LiMn2(BO3)2
mp-6073,4.9403,Mg3Al2(SiO4)3
mp-556962,1.661,Pr3CuGeS7
mp-781016,2.3295,Li14Fe4O13
mp-6693,4.064,CaZn(SiO3)2
mp-510724,2.6457,As3Pb5ClO9
mp-697008,0.7089,CuH12N2(OF2)2
mp-676867,3.2502,Ca2HoF7
mp-559875,2.2126,K3Na2LiTeO6
mp-30975,2.9474,Na3BO3
mp-541335,2.2391,As2Se2S(NF6)2
mp-560324,2.3627,Rb3Hg2S3ClO12
mp-24029,3.3547,Na2H10SO5
mp-505113,2.7043,TiSn6F16
mp-755613,1.3641,LiTiO4F3
mp-778827,0.5336,LiMn2(BO3)2
mp-558407,0.9847,In2Si(AgS3)2
mp-569862,1.4341,Rb4P2Se9
mp-675768,2.3429,Dy14Ti10O41
mp-761322,3.1214,LiNiBO3
mp-6169,3.0289,Ba3Ta6(Si2O13)2
mp-13206,1.1665,PrZnPO
mp-20763,1.7515,Na2Gd2Ti3O10
mp-707463,5.4485,KNaReH9
mp-745139,3.2177,Na2Cr(HO)8
mp-867129,4.3283,RbZnH2Se2ClO6
mp-558717,2.2661,LiUAsO6
mp-14796,1.0065,KPt2Se3
mp-14292,3.6617,Ba2NdSbO6
mp-762692,0.3676,Li5Fe11O16
mp-542919,3.8315,NaGe2(PO4)3
mp-754004,4.5627,TmHO2
mp-553891,5.1936,Mg2BP3(H3O7)2
mp-770371,0.6493,Li4Ti3Mn2Fe3O16
mp-777531,0.8115,Ti3Nb2Cr3O16
mp-771397,0.0263,Li4Ti3Mn2Ni3O16
mp-556425,3.4408,SbF4
mp-27709,1.4109,Bi6Br7
mp-698068,2.8838,SnPH5NO4F
mp-556163,2.6791,Zn2SiO4
mp-565597,1.6302,Cu3P4S4I3
mp-675668,2.0251,Yb(PrS2)2
mp-505145,1.5236,Ag3BiO3
mp-540554,3.9656,NaH5SO4
mp-624691,1.9226,VAgO3
mp-553918,0.8729,Eu2B5ClO9
mp-554408,1.7025,CsAgSb4S7
mp-754929,1.0047,Ga3NO3
mp-12803,7.2193,BaEr2F8
mp-770865,1.6721,Mn3SnO8