id,formation_energy_per_atom,pretty_formula
mp-1018697,-0.553044057,EuCdSn
mp-568909,-2.290448288,Cs2MgCl4
mp-571,-0.347428463,TiNi
mp-972997,-0.316123357,HoErCd2
mp-774976,-2.482383176,Li8Mn5Fe3(BO3)8
mp-19456,-2.718889614,AlV2O4
mp-560010,-2.533838721,Rb2Ga2B2O7
mp-18622,-1.073023587,Hf7P4
mp-769485,-2.318959599,Na2MnPCO7
mp-567252,-0.562346921,Nb3Se12I
mp-774303,-2.510489168,Li6Mn5Fe(BO3)6
mp-5544,-0.119239513,U(Al2Cr)4
mp-12765,-0.171728416,GdC2
mp-23054,-1.598705081,NaBiO3
mp-11613,-2.971974406,Ba2CuSi2O7
mp-699284,-0.618521167,Li2HN
mp-18583,-0.71189769,Ti4Si7Ni4
mp-31483,-0.180675688,Na5TlSn3
mp-762517,-2.423663149,Li4Ti3Fe3(TeO8)2
mp-558415,-1.108876949,K3CuP2S7
mp-1008632,-0.454237106,V2C
mp-761342,-1.641070313,Li4Co2Cu3Sb3O16
mp-27385,-1.533743994,KTlCl4
mp-13018,-0.10568839,UCo4Sn
mp-758004,-2.985435929,K3Nb7O19
mp-15437,-2.721909092,MgP4O11
mp-12263,-2.028993975,LiAuF4
mp-850370,-2.422716548,Li6Mn2B4SO16
mp-1009639,-1.354618979,PrN
mp-642844,-1.725579335,BaH5BrO3
mp-693753,-3.226296917,BaNa5Ca7P6(O8F)3
mp-771295,-2.456964968,LiMnBO3
mp-10601,-0.482318096,Y3GaC
mp-1018721,-3.989088883,HfO2
mp-866691,-0.875707221,La2PC
mp-58,0.012486402,K
mp-765729,-1.356639768,Co2O3F
mp-757587,-2.362749238,Dy5Bi11O24
mp-31498,-0.763509962,BaPt
mp-1019747,-3.225874943,K2Ca3Si3O10
mp-770210,-3.729144932,CaY2O4
mp-555173,-2.837990282,UCO5
mp-3019,-0.289241961,Tl4SnTe3
mp-677042,-3.143353528,Na7Zr4Si5PO24
mp-3647,-1.360100881,LiGaS2
mp-675964,-0.519529658,Li5GeAs3
mp-689979,-2.43012604,LiFeP2O7
mp-557023,-3.178034166,NbVF6
mp-695214,-3.308559876,Ba9La3Mg5Nb7O36
mp-765476,-4.002183875,Y13Ho3O24
mp-7841,-1.094191258,Ba(GaSe2)2
mp-17470,-0.824148582,Ba3(SnAs2)2
mp-673151,-1.860215843,Cu4(PO4)3
mp-560794,-2.763294054,BaNbTePO8
mp-722988,-1.527317239,TeP4H26(NO5)4
mp-758599,-2.326456224,Sr5(ReO3)12
mp-7603,-3.550512942,Li2TiF6
mp-3771,-3.388055306,MgTiO3
mp-744001,-1.203576748,Fe2H13C6NCl2O11
mp-558804,-2.665896219,CsGeB3O7
mp-778734,-2.530903525,Li6Fe3Sn(PO4)6
mp-505088,-0.335160312,NbTe4I
mp-973793,-0.679481676,Li8SeN2
mp-558063,-0.872832267,KCu(BiS2)2
mp-554610,-4.171632208,PrZr2F11
mp-21228,-2.153426181,SrCuSeF
mp-864800,-0.91548102,Yb2PdAu
mp-505598,-0.807776072,Zr(Ni2P)2
mp-766540,-1.622337761,Li4TiS4
mp-764102,-2.562161531,Li3Fe2(SiO4)2
mp-707958,-1.168274849,PH9C2N4O5
mp-782657,-2.357929779,Mn3VTe2(PO4)6
mp-20497,-0.405045564,SrIn2Ir
mp-28874,-0.140246005,Hg2P3Br
mp-8348,-2.646691892,TlSbF6
mp-567769,-0.797399233,Ca(SiPd)2
mp-12525,-2.761249514,Sr2LiReO6
mp-780866,-2.602052992,LiFe2Si2O7
mp-561472,-1.908239257,Hg2PO3F
mp-698695,-2.545330646,CaFe2Sb2(PO4)6
mp-20970,-0.127370018,NaMnSb
mp-14793,-0.616924594,Mg2SiPt
mp-556708,-2.934770218,KUP3O11
mp-559951,-2.854959962,SrTa2Bi2O9
mp-675430,-1.396571793,Sm4Ag2Se7
mp-723109,-1.261407481,BeH14(I2O9)2
mp-569815,-0.546041426,Si2Ru
mp-674328,-0.98643673,Zn(InS2)2
mp-775439,-2.572726615,Li2Cr3P5O18
mp-29898,-0.463774174,Tl2Au4S3
mp-17092,-0.851246311,ScSnPd
mp-650619,-0.619837491,Cs3Bi7Se12
mp-781712,-1.696605881,Na2SnO2
mp-773980,-1.162516663,Bi3(TeCl5)2
mp-636105,-0.094483442,MnGa
mp-12442,-1.836355533,KAuF6
mp-554737,-1.790975595,CsAu2F7
mp-18351,-0.795422354,Sr3(GeP2)2
mp-760489,-1.070631025,PH6NO2
mp-976311,-0.367029925,HoErRu2
mp-568450,-0.419185106,SrAlH5
mp-558992,-1.659857108,In7GeIrO8
mp-552488,-2.209470486,LaCuSeO
mp-567771,-1.326164869,Ba(Si3N4)2
mp-850982,-2.086850387,LiCo3(OF3)2
mp-570311,-0.684753638,K4Sr2SnAs4
mp-772771,-3.389327235,La4(B2O5)3
mp-556837,-1.201902053,AgAs(S8F3)2
mp-30002,-1.452312264,Sc(IO3)3
mp-976182,-0.34596219,PrErTl2
mp-4071,-0.585937945,Er2(NiB2)3
mp-1009238,0.027418297,Hf2Tl
mp-849952,-2.334758524,LiFe4(BO3)4
mp-2863,-0.209212341,CeCd3
mp-600024,-3.270663152,SiO2
mp-622278,-2.093842898,TlV2SbO8
mp-19796,-2.889800656,Ba2Nb5O9
mp-755376,-3.058477675,Er2TeO6
mp-677431,-3.00912732,Na3SrTiNb3O12
mp-569674,-0.763294256,La(CoAs)2
mp-11841,-0.068429718,CeAg
mp-540469,-2.380789688,Li2Co3(P2O7)2
mp-634,-0.456144422,HgS
mp-1018954,-1.276616548,PuSe2
mp-760791,-2.169912464,Li4Cu5F17
mp-850251,-3.310018829,Na2Ti9O19
mp-989577,-2.66500238,LiTl2GaF6
mp-3938,-1.425850085,ZrSiS
mp-540332,-2.870170701,Nb2(PO4)3
mp-20965,-0.331919363,GdCd2
mp-662919,-1.746481715,SbTe(SeF3)2
mp-979945,0.44987949,Yb3V
mp-757541,-2.471250501,LiSiBiO4
mp-4289,-0.926392133,Er2Si3Rh
mp-22255,-0.692442162,RbInTe2
mp-1018679,-1.149418578,DyTe2
mp-561134,-0.498393243,Sn2SbS2I3
mp-541330,-2.494512153,Sr2SmGaCu2O7
mp-30591,-0.324884341,Li2CuSn
mp-769870,-1.971726233,Li4Fe3Sb5O16
mp-13497,-0.025445927,Er2Mg
mp-13009,-0.381659104,SmCrGe3
mp-1761,-0.827972743,LuIr2
mp-631389,0.790521275,SiWCl2
mp-770390,-1.758798534,Li2Cr4O13
mp-28281,-0.474731186,H4I3N
mp-973300,-0.231844227,Lu3Ga
mp-2970,-2.0253654,Na4GeO4
mp-604429,-1.832979496,NaFe3H6(SO7)2
mp-20918,-0.663610326,ErTiSi
mp-4604,-0.912932664,Li7VN4
mp-4439,-0.792719361,Pr(SiNi)2
mp-989632,-0.609345402,LaOsN3
mp-3676,-0.126501401,MgCu4Sn
mp-1247,-0.371755505,Sb2Ir
mp-260,-0.527457628,CrB
mp-761549,-2.583648871,LiMnPO4
mp-554889,-1.139419117,ZnS
mp-29206,-0.448299046,BaMnSb2
mp-631621,-1.905460444,VBi(PbO3)2
mp-19909,-0.430744534,Dy(CrSi)2
mp-617281,-0.272941079,In4Te3
mp-555528,-3.453640155,Ca2Th(Si2O5)4
mp-1341,-0.267281328,Te2Rh3
mp-653429,-1.936204732,Mn7FeCl3O10
mp-699437,-2.211523619,KP(HO2)2
mp-626564,-1.464630585,Ca(H8O5)2
mp-972658,-0.398371139,SmBi3
mp-557794,-1.781151098,Yb3SiO
mp-4355,-3.629036951,YTiO3
mp-758848,-3.393442719,Ti5NbO12
mp-20987,-0.597840921,YZnSn
mp-28529,-1.208622879,KInBr3
mp-555717,-2.488592704,K2Nd2IrO7
mp-626271,-1.464653049,Sr(H8O5)2
mp-1018068,-0.251254531,CrFe2Si
mp-10893,-0.69326411,MnAlPt2
mp-31502,-0.116580385,ScCd7
mp-570767,-0.340155639,PrBC
mp-30354,-0.200390476,ScAg4
mp-780217,-1.822657454,Li7CuO4
mp-776435,-3.053002085,LaTiNO2
mp-754823,-2.759852826,ErTlO2
mp-556867,-3.164759672,K2PrZr(PO4)3
mp-760251,-2.36570995,Na2CuP2O7
mp-11416,-0.165816645,TaGa3
mp-997003,-2.579218986,LaAuO2
mp-1018164,0.904526951,PtC
mp-679987,-1.241284523,NbP2S2Cl5
mp-621930,-0.462603996,Cs2SrN12
mp-864949,-0.534908425,MnGaRh2
mp-10867,-1.234162127,PrPPd
mp-867908,-0.679533226,LaBiAu2
mp-771996,-1.97302627,Li3Mg2Fe19O32
mp-779689,-0.519317249,H3N
mp-675786,-0.344499039,Cu3(BiI4)4
mp-704981,-0.018029924,Mn5Ge2
mp-7604,-2.804722943,Mg3NF3
mp-752798,-4.238937027,CeTh2O6
mp-20606,-1.511166748,Tb3In5S12
mp-780859,-2.818955934,Ti3V2Ni(PO4)6
mp-761495,-2.474034585,Li2Ni(PO3)4
mp-985610,-1.48786377,NaAg(CO2)2
mp-24452,-2.0143513,CaP2H6O7
mp-768071,-2.176485002,Li5Mn17(SiO16)2
mp-10776,-0.965175673,K2Sn(AsS3)2
mp-4875,-3.716633936,GdTaO4
mp-861883,-0.309825801,Ac2CuIr
mp-20083,-0.660029889,ScCuSi
mp-6442,-3.264585604,LiAl(Si2O5)2
mp-29558,-1.673912841,Bi3ClO4
mp-761825,-1.59082853,LiSb(TeO4)3
mp-776172,-2.069768618,AlCuO3
mp-1018100,-0.153821757,AlSb
mp-11155,-0.488435059,NdMgGa
mp-768572,-3.532795039,YAl3O6
mp-833,-0.707146162,CaPd2
mp-556609,-0.877162255,KSb(PS3)2
mp-764357,-3.012442322,V2OF5
mp-722397,-1.788333355,MgP2H12O11
mp-27849,-1.50872875,TiBrN
mp-1019257,-0.558113686,SmZnGa
mp-706235,-2.571058378,NaCa2V3Zn2O12
mp-559549,-3.125608263,K2LaNb5O15
mp-8860,-0.360410685,Na3As
mp-1221,-0.335495473,V3Ge
mp-23763,-1.052500653,SnH8(NCl3)2
mp-17659,-0.011804937,Mg23Al30
mp-8566,0.002813926,Ag
mp-673,-0.46505368,HoNi2
mp-28252,-2.019498412,Ba5(GaS4)2
mp-693340,-2.275138711,Al4Zn4P8H13N3O32
mp-759312,-2.083483958,MgSiH12(OF)6
mp-505546,-0.620594402,GdMnB4
mp-22460,-0.256097499,LiIn
mp-19712,-0.468173844,PrAgPb
mp-559872,-3.276351815,SiO2
mp-773164,-3.200364984,Gd2V2O7
mp-30119,-2.022904497,Cs3AsO4
mp-579779,-1.023654135,Pr2P3Au
mp-952,-0.359093693,MoPt2
mp-17889,-2.671141973,KNa2(PO3)3
mp-759883,-2.22419086,BiOF
mp-559135,-1.933959479,Na2MgH8(SO6)2
mp-2572,-0.100781754,SrMg2
mp-773455,-2.279228151,V2SnO7
mp-768400,-1.335752933,Li8FeS6
mp-601846,-0.334778778,Yb2In8Ir
mp-555980,-2.708599903,Ba2Zn3(PO3)10
mp-3415,-0.81138213,Yb(SiRu)2
mp-28511,-1.079302936,Zr2P
mp-568802,-0.397426046,KBi(PSe3)2
mp-570194,-0.449477383,Ca(BH4)2
mp-975064,-0.595657152,HoReB4
mp-978842,-2.200708038,SrCaO3
mp-558828,-2.899418106,K3Nb3(BO6)2
mp-27703,-1.502814889,InBrO
mp-571184,-0.620392284,CuMo3Br7
mp-978282,-0.124017915,Mg3Hg
mp-3717,-0.841570267,LuBRh3
mp-775437,-2.596926845,V3P6WO24
mp-24805,-0.638216783,LaNiSnH2
mp-37829,-1.86874658,La5TlSe8
mp-14482,-3.106214563,SrNb6O16
mp-755116,-1.540346185,In2Pt2O7
mp-759767,-2.370557878,LiCu(PO3)3
mp-776444,-3.054551483,KLiTi2(PO5)2
mp-977543,-0.728751356,ZrInRh2
mp-4179,-3.005036568,YbPO4
mp-971944,-0.012785667,SrMg3
mp-979988,0.069417301,YbSm3
mp-989594,-0.198604512,Cs2NaGaH6
mp-675199,-2.098450163,NaPrS2
mp-4612,-0.496484125,TiCo2Ge
mp-675640,-1.932744375,Hg2AsF6
mp-6592,-1.192621518,K2Pt(NO2)4
mp-777804,-2.845370193,LiFeF4
mp-694892,-2.9091499,CaLa3Mn4O12
mp-9726,-3.942448852,SrBeF4
mp-27456,-2.22783229,BaBr2
mp-752475,-2.14294165,Rb2Ga2Ge3O10
mp-559405,-1.414280779,RbU2SbS8
mp-571146,-0.943074315,SnICl
mp-979437,-0.13237577,YPaTc2
mp-974467,0.808383949,Ru3Cl
mp-556890,-3.351967737,BaNaCr2F9
mp-863726,-0.747986296,Pm2PdRh
mp-540169,-1.936229552,Co3(PO4)4
mp-762863,-2.538304452,Fe3OF5
mp-3177,-0.536104947,Nd(CuGe)2
mp-20695,-0.247688761,Zr3In
mp-2719,-0.600035748,DyB4
mp-637436,-0.289970116,Tm10In20Co9
mp-560014,-1.831355229,Pr3CuSnS7
mp-867352,-0.085233967,TcRh3
mp-579560,-1.207038602,Cs3Sb2Br9
mp-542200,-0.623638709,CdAg4Ge2S7
mp-631398,0.457624752,TeOsCl2
mp-30640,-0.028248459,Tm2Fe17
mp-560740,-2.566908109,La2SnS3O2
mp-984776,0.443230255,BeIn3
mp-767692,-3.097444662,Li2VF6
mp-720912,-1.321212278,KZnH4Br3O2
mp-12630,-1.890419526,MgSeO4
mp-772660,-2.753376005,NbCrO4
mp-978564,-0.374702473,SmYTl2
mp-18932,-2.647880814,LiPr(WO4)2
mp-570325,-0.091927178,AuSe
mp-768267,-3.026627634,HoInO3
mp-17287,-0.361804649,TaTe4Ir
mp-893,-0.934117217,ZrSi
mp-19385,-3.054320015,YMnO3
mp-43068,-2.927123591,Na3Al3Si3AgBrO12
mp-559129,-1.53084432,Li3Er(NO3)6
mp-780146,-2.360015318,Fe3(OF2)2
mp-978825,0.351219686,Sm3Cr
mp-850397,-2.067629048,Li4Cr2Fe5O12
mp-19019,-1.711327135,NiMoO4
mp-19983,-0.220445757,TiCuSn
mp-6813,-3.315311409,KCa10(PO4)7
mp-28574,-1.594269778,KPbO2
mp-561455,-1.620114655,Ba8Sb6S17
mp-22125,-0.096656526,Np(CoGe)2
mp-977164,-0.625792009,Li3H3N2
mp-1018136,-1.050459034,LaBiPt
mp-8880,-0.606043489,AlP
mp-675822,-2.189651704,Dy14(PbS8)3
mp-744713,-1.940389678,NaFe3P2(H4O7)2
mp-989527,-1.856611004,Cs2NaNF6
mp-35651,-1.686630736,La2USe4
mp-1018087,-0.631527362,CeAu
mp-16164,-3.742217052,Dy3Si3O10F
mp-1237,-0.25484386,UGe2
mp-775262,-2.349494216,Fe5O3F7
mp-11643,-0.724540507,K2Mg(PSe3)2
mp-18915,-2.40838343,LiCoPO4
mp-29901,-0.683079809,Rb2Cd3Te4
mp-769472,-1.788593308,Li11(NiO4)2
mp-764745,-2.575002964,Fe4OF7
mp-556356,-3.315295247,Na2SrAl4(SiO4)4
mp-23958,-1.646925498,YH12(ClO2)3
mp-568333,-1.183144206,K2SnBr6
mp-27318,-2.345883725,Sb3(BrF8)2
mp-4840,-0.479401468,GaCuSe2
mp-745180,-1.676393318,CrH6SO7
mp-20947,-2.244631806,CaRuO3
mp-18065,-4.122478952,BaCaAlF7
mp-9200,-0.899288933,K3AuO
mp-555435,-0.294183947,S4IN3Cl2
mp-761087,-2.765245265,NaTiO2
mp-7881,-0.30834812,Sr(CdGe)2
mp-753673,-2.151311268,BiOF
mp-510219,-0.146288545,Sn2Ru
mp-1018751,-2.218345034,LaS2
mp-604273,-1.692403995,Cu2GeP2(H5O7)2
mp-631368,0.844213864,SiSbOs2
mp-862941,-0.594748047,PmMgRh2
mp-976799,0.165879766,Ni3Bi
mp-648,-1.277164648,Na2S
mp-780164,-2.023652065,Na6Co2C4SO16
mp-30404,-0.538816995,Li2SbAu
mp-867168,-0.935988095,Sr2SbAu
mp-676855,-1.55098687,In(HO)3
mp-715438,-1.781885969,Fe3O4
mp-31491,-0.828206901,Sm(GePd)2
mp-559807,-2.01595225,Sb2BrF17
mp-864783,-0.990847605,Yb2SbAu
mp-12657,-0.443379673,HfAl2
mp-23382,-1.124610347,Y4CI5
mp-10039,-0.144456099,Pr3AlC
mp-581403,-3.391521626,K3Na4Si3BF22
mp-3486,-0.339148508,KSnSb
mp-542569,-0.69364801,AlRu
mp-27878,-1.816011466,NaSb5O8
mp-625654,-1.399648293,TeHO3
mp-771217,-1.883380283,Na4Co2P(CO4)4
mp-15066,-3.460248906,LiTmSiO4
mp-3829,-0.138171999,CdSnAs2
mp-1016092,-2.053254131,Re2O7
mp-18737,-2.911053051,Nd2NiO4
mp-27716,-1.211359597,KTlO
mp-977368,-1.28851998,K2Dy4Cu4Se9
mp-3217,-2.515749812,USeO
mp-19082,-2.970784233,TiMnO3
mp-2599,-1.547975755,NdN
mp-38487,-1.994098437,Li7BiO6
mp-865415,-1.207686715,YbTmPt2
mp-548691,-2.577704942,Sr2ZnReO6
mp-996978,-0.706989869,CuAuO2
mp-5556,-0.786010303,U(SiRh)2
mp-29761,-2.837988318,UCO5
mp-776922,-1.117798182,Rb2O
mp-772046,-2.213840877,NbCu3(PO4)4
mp-976330,-0.4677603,LiZr2Ir
mp-21332,-3.228844384,LiGdO2
mp-9789,-1.457821361,CaPS3
mp-756436,-1.596745339,FeO
mp-29911,-1.614625143,Ba3Sb2O
mp-19308,-1.617195515,Li2NiO2
mp-680333,-0.241956554,Ge4Se9
mp-568636,-0.108126263,TiCr2
mp-504876,-0.317356359,Hg19(As5Br9)2
mp-30835,-0.462884963,TaPd2
mp-1992,0.050629305,Pu5Ru3
mp-21508,-0.834917352,Y2Pd2Pb
mp-773667,-0.747696679,Ge2N2O
mp-4978,-1.264723609,Ti2AlN
mp-997035,-0.878231347,CuO2F
mp-721252,-0.829604592,Li10Sn(PSe6)2
mp-6942,-2.053561572,Ho2CdS4
mp-141,0.005413735,Yb
mp-555646,-1.842135949,BaH4(CO3)2
mp-755615,-3.059724462,Li3Ti4O8
mp-568522,-0.479043447,In3SnI5
mp-763784,-2.898007072,LiMn2F6
mp-27917,-3.396945621,Ca3SiO5
mp-675625,-1.506013738,KNO3
mp-567280,-0.809225055,Yb5Bi3
mp-604153,-0.431921389,LaCr2Si2C
mp-531914,-3.299860628,Li3Ti8O16
mp-735586,-1.545164722,KFe2H(SeO3)4
mp-35889,-0.962437054,K4C2O3
mp-556438,-3.032420089,KNaSmNbO5
mp-542170,-0.872412649,Lu5(Si5Ir2)2
mp-560605,-3.172854846,LiLa4AuO8
mp-1000,-1.7901682,BaTe
mp-769111,-2.302608957,Sc3Bi3O11
mp-694932,,Na(CoO2)3
mp-562569,-1.076837368,CsPPbS4
mp-1018685,-0.539303662,ErCuSn
mp-2723,-1.264534374,IrO2
mp-755933,-0.797382601,Li2Fe3S4
mp-11985,-0.378120424,LaMgTl
mp-620325,-1.843255607,CoCu2(BO3)2
mp-24456,-1.542941137,SrH2N2O5
mp-698623,-1.428353567,K4W11O35
mp-850225,-2.510988323,FeP6(WO8)3
mp-28701,-0.869338987,CsSbS6
mp-4877,-0.039596892,CsNa2Si17
mp-542298,-1.408605057,Ag2F5
mp-2371,-0.237695036,Ga2Te5
mp-1009831,-0.548761221,TaN
mp-19259,-3.313854833,Sr4Al6WO16
mp-778680,-2.463361218,Li5Mn8(BO3)8
mp-971928,0.137510192,Zn3Ge
mp-975769,-0.321470819,PrYZn2
mp-23245,-0.802005465,ErBi
mp-29996,-1.500129913,La3PI3
mp-775134,-2.628715629,MnV3(PO4)4
mp-758374,-2.810720491,Ta7(P2O7)8
mp-758899,-2.447423178,Sb2OF8
mp-505537,-0.282074363,Al3(Co10B3)2
mp-752477,-1.864566978,K3NaFeCl6
mp-867879,-0.382564393,SmHg3
mp-16516,-0.63492327,TbAl2Ni
mp-20027,-0.535333993,FeP2
mp-569740,-0.412403731,Yb2(Ni5B3)3
mp-776205,-2.456168834,Hf2N2O
mp-778102,-4.330966045,BaYF5
mp-1008874,-0.084741817,MnCoTe
mp-756936,-3.158767195,Sr3Li4La5O12
mp-31362,-2.346328148,Na3YCl6
mp-7786,-0.764046066,CsCu3S2
mp-624,-0.171707437,B6As
mp-555650,-2.445776647,NdSeClO3
mp-2474,-0.336868063,YAg
mp-11987,-0.349979924,SmMgTl
mp-7939,-0.998240717,NaNbSe2
mp-761573,-2.651825177,Li4Mn(PO4)2
mp-504506,-2.150600644,RbIn(MoO4)2
mp-2052,-1.378432485,ScAs
mp-629082,-1.021227315,Ba3MoN4
mp-752677,-2.017182993,Ba2YBr7
mp-6456,-2.634332266,LiNbGeO5
mp-676643,-1.87486908,Ba2NF
mp-776213,-2.546567685,Hf2N2O
mp-975383,0.230195991,RbCa3
mp-13381,-0.630798047,CeZnPd
mp-7692,-0.470299859,Al(CrB)2
mp-704210,-2.372081254,Mo(PO4)2
mp-777453,-2.929027414,LiVF6
mp-11170,-1.768205626,KCeSiS4
mp-759766,-1.610783071,Bi25BO39
mp-555569,-1.062300702,Cr2S3
mp-758289,-3.471871695,Th4Ta18O53
mp-142,0,Ga
mp-567722,-1.359076931,Ca7NbSi2N9
mp-559062,-2.897885489,KP(OF)2
mp-556481,-2.517324259,SrU(SeO4)2
mp-706608,-2.010804379,KPH3O3F
mp-11411,-0.60332318,ScGa
mp-18002,-2.252017254,KLi3GeO4
mp-554724,-0.401171676,CuP4S3I
mp-24818,-0.31208202,LiBeH3
mp-557997,-2.325093338,CaSeO3
mp-561179,-2.176278235,Ba2CuIO2
mp-9983,-0.733782953,Ta2Se3
mp-756919,-2.476307308,Mg3(AsO4)2
mp-29104,-2.997283163,Ti3Zn2O8
mp-30516,-0.517010947,Th3Sn13Rh4
mp-559051,-2.251369359,BaBiO3
mp-9306,-0.715243758,Sr2ZnN2
mp-13344,-0.504307187,YbB4Rh
mp-771298,-2.547671213,Li4V3Cr2Co(PO4)6
mp-7088,-0.60037767,Ta2C
mp-778460,-2.566045691,Li3Bi(PO4)2
mp-1443,-2.728174886,Sn3F8
mp-41283,-3.210030862,BaLaTaMnO6
mp-30312,-0.728849992,Ca2SiIr2
mp-770327,-2.331121025,Li4Ti3Fe3(CoO8)2
mp-6721,-2.601459361,Sr3LiRuO6
mp-5986,-3.508001519,BaTiO3
mp-18997,-2.65316802,LiMnPO4
mp-541318,-3.024983006,CsTi3Si2P6O25
mp-622930,-2.325419173,Ba4In6O13
mp-3196,-3.074130742,NdGaO3
mp-780049,-3.435650969,LuTa7O19
mp-558934,-0.601413505,Hg3ClO
mp-29204,-1.219259927,P4(S2O)3
mp-561481,-2.460321275,Ba5Ru2ClO9
mp-19722,-0.739679548,MnCu2SnS4
mp-756374,-1.38520096,SrPt3O4
mp-867680,-1.121431454,NaTlO
mp-769550,-2.01649378,Li2Mn5(FeO6)2
mp-9915,-0.586337314,LiBeP
mp-755887,-3.106958915,La2S2O
mp-2463,-0.175776882,LuFe2
mp-19398,-1.781578804,FeAsO4
mp-554264,-1.602537509,Ba3Tb2(PS4)4
mp-18532,-1.46655086,HoPS4
mp-867739,-1.380437475,Nb3GeS6
mp-554826,-3.599129531,Pr3Si2ClO8
mp-2104,-0.717248035,UAs
mp-568156,-0.327360308,Y4CdRu
mp-706579,-1.456968966,KH3(SeO3)2
mp-557807,-1.2724935,CsK2AuO2
mp-555620,-2.99400206,BaNb7(P2O11)3
mp-27608,-2.59461388,Be4TeO7
mp-22449,-0.196174932,InCu(PSe3)2
mp-287,-3.973671129,UF4
mp-865165,-0.397994334,HfScCo2
mp-556761,-2.758986805,Ba5As3ClO12
mp-40204,-2.965211519,KZrTl2OF5
mp-7097,-1.055083488,ThAs2
mp-626506,-1.534949056,NaHO
mp-752414,-3.901117586,Tb2TiO5
mp-133,0.048152,Sb
mp-998964,-0.471446824,TiGaFeCo
mp-999336,-0.816503789,NdPd
mp-973285,-0.881326929,HoLuAu2
mp-865191,-0.159591364,FeGeRu2
mp-760319,-1.740637377,Bi5O7F
mp-997017,-0.391241246,AgClO2
mp-27330,-2.806279315,La3(OsO5)2
mp-769542,-1.991605632,Na5Cr2As(CO4)4
mp-867955,-2.667812854,Na2Nb3O6
mp-537,-0.238048842,ErCo2
mp-669375,-3.746540591,Gd3B2(O2F)3
mp-3824,-0.981989274,Ta9(NiS3)2
mp-752983,-3.803001168,CeZr7O16
mp-753755,-1.838636235,Bi3O4F
mp-1019363,-1.172584342,ThTeAs
mp-769500,-2.185735655,NaMnPCO7
mp-4618,-1.808699473,Rb2SeO4
mp-972810,-0.267413624,SiTc2W
mp-28912,-0.757376543,MnInBr3
mp-28075,-3.080338481,K2Ti2O5
mp-755776,-2.233890261,Rb4SiO4
mp-554164,-2.633099438,KLiZnP2O7
mp-1006277,-0.225640042,CeGa4Co9
mp-981933,-0.230740821,NaPd2Pb
mp-645962,-3.179984343,La4B14O27
mp-540635,-2.372406398,BaSn(GeO3)3
mp-768490,-1.997705551,Bi2(SO4)3
mp-772051,-2.169943625,Li3CuSiCO7
mp-681992,-0.148720089,Zr5Pb3
mp-21885,-0.889247327,Ca2InPt2
mp-568495,0.010981575,Cu10Sn3
mp-673071,-2.554916755,Li2SnP2O7
mp-558431,-2.417507215,LiCu(PO3)3
mp-755137,-1.456883164,BiO2
mp-1007776,0.215712444,TlP
mp-629443,-1.5571136,Li2EuGeS4
mp-23414,-2.315187487,Sc4NCl6
mp-999469,0.982260956,ZnN
mp-776201,-2.26350688,Zr2N2O
mp-975638,0.211579216,Pr3Hf
mp-778517,-2.261780159,Mn3Sn(PO4)6
mp-558229,-2.363510892,La10S19
mp-998605,-1.811230672,RbPbCl3
mp-974042,-0.743491493,Nd2Co12P7
mp-774349,-2.429220019,Li6MnFe5(BO3)6
mp-1208,-0.50892324,ErAl2
mp-2892,-3.533121708,BaNd2O4
mp-758844,-2.321636968,Li3CuSiO4
mp-510564,-0.450329582,NdIn5Rh
mp-755288,-0.801345068,LiFeCuS2
mp-2738,-0.454470879,DyNi
mp-647096,-2.317845918,Gd3S3N
mp-769877,-2.092770431,Li7Nb2Fe3O16
mp-721586,-2.312621358,BaSi2(H3O4)2
mp-677103,-2.529925904,RbHF2
mp-570985,-0.204895565,SiC
mp-996964,-0.892283149,CdAgO2
mp-27210,-2.511769758,RbTlF4
mp-982772,-0.927451726,Pm2PtAu
mp-759825,-2.198084347,BiOF
mp-541756,-1.148736349,Te2MoCl12
mp-530141,-3.283448109,Li7Ti16O32
mp-850511,-2.001225693,LiFeO2
mp-540830,-2.066535233,OsF5
mp-772898,-2.838887902,AlGaO3
mp-743579,-1.86994508,SrCoBiRuO6
mp-989404,-1.143407052,Ca6In2NF
mp-2818,-0.94932421,YbAu
mp-850229,-2.429256961,LiV2P4(HO8)2
mp-557154,-2.221534539,NaGaO2
mp-540996,-2.994021791,NdGeBO5
mp-756086,-1.267715332,Li5BiS4
mp-22303,-1.313743672,Rb3InS3
mp-569511,-0.255802022,NiTePd
mp-12386,-0.683579148,ErSi3Ni
mp-6122,-3.03146874,Ba2NdSbO6
mp-3782,-2.626454521,Nd3Sb5O12
mp-680153,-0.590665439,CdI2
mp-555112,-2.958813611,Li2CrF6
mp-770729,-2.495341274,Li2AlFeO4
mp-10973,-0.808157063,K2Ga3CuSe6
mp-673700,0.018871405,Nb2Sb
mp-780237,-2.086365766,Li3Cu3(PO4)2
mp-2352,-1.439463086,Na2O
mp-758218,-2.846775979,LiTiP2O7
mp-27293,-0.764577827,Tl4HgBr6
mp-569048,-0.444448998,MgBIr
mp-774763,-2.730357524,Ti3Sb2(PO4)6
mp-559676,-0.758703655,SnS
mp-15691,-1.330166698,NpAsS
mp-30585,-0.190333526,HoCu5
mp-8794,-2.654142157,K4UO5
mp-603612,-2.065794675,TiP4H8N2O13
mp-12056,-0.675473423,Ba(POs)2
mp-20112,-0.187243181,Ni3Sn
mp-1018017,-0.174645431,Sc2MnSn
mp-1018672,-0.306928988,CoAs2
mp-28868,-1.2575167,Nb3(BiS3)2
mp-759028,-2.445234609,Li3Sb3(PO4)4