id,formation_energy_per_atom,pretty_formula
mp-9293,-0.736819372,EuGeAu
mp-686541,-3.163918602,Al2Cd(Si5O12)2
mp-768556,-2.423223733,Na3BSbPO7
mp-17449,-0.347598854,Tc3P
mp-504468,-1.563839,Bi3Ru3O11
mp-310,-0.072956125,NpCo2
mp-1020108,-1.182689887,LiCaMgSiN3
mp-865998,-0.707030717,HfGaIr2
mp-18787,-1.297599738,Ba2Mn3(SbO)2
mp-2958,-0.447463018,Dy(BC)2
mp-36600,-0.272690499,Ag3SBr
mp-684798,-0.03196512,Ag2Te
mp-972055,0.194785477,Rb3Yb
mp-867311,-0.826155356,AcAgTe2
mp-776097,-4.015761908,HfO2
mp-15727,-0.690756408,La(P3Ru)4
mp-763454,-2.691078939,LiMn2OF3
mp-771773,-2.331029635,Na2BiBPO7
mp-316,-0.285605575,MnV
mp-39483,-3.269919652,SrLaTiMnO6
mp-2442,-0.880113913,ErAu
mp-554346,-3.144543872,KSr4(BO3)3
mp-561125,-3.263023286,Ba5P3BrO12
mp-862940,-0.79714972,Er2CuPt
mp-675013,-1.796589395,Na(Ce2Se3)4
mp-2924,-0.857555627,Ho(SiNi)2
mp-18132,-1.031258125,K4SnSe4
mp-1006258,0.260370457,ErPu3
mp-863669,-0.644210789,Pm2CuPt
mp-24747,-0.408161412,Na3H6Rh
mp-780867,-1.963151865,Mn8O13F3
mp-18162,-1.237594072,Li(CuO)2
mp-6822,-2.877776736,NaGa(SiO3)2
mp-763992,-2.5315044,V6O11F
mp-625468,-2.379339871,Lu(HO)3
mp-762505,-2.196162248,Ti3Co3(SbO8)2
mp-504535,-1.787694155,InHO2
mp-669384,-0.299965806,Cs2NaCo(CN)6
mp-778793,-2.528157014,Li4Fe3(SiO4)3
mp-783904,-1.367838272,NiH20S2(NO7)2
mp-19471,-3.233691534,Ba5Sm8Mn4O21
mp-977379,-0.67716391,Ho2NiIr
mp-776497,-3.330637567,Li2La3Ti2Nb2O13
mp-557163,-3.342689193,TaPbF7
mp-615821,-0.96199275,Ta9(FeS3)2
mp-674363,-3.893149232,Zr3Sc4O12
mp-23519,-2.090366546,Ga4Bi2O9
mp-15604,-0.555900729,TmB2C
mp-792972,-2.24791705,Mn3Cu2Sn(PO4)6
mp-5938,-1.697100074,SrCu2O3
mp-746371,-1.721110782,KCo2As2HO8
mp-9349,-3.570713646,KRb2ScF6
mp-556767,-1.1136085,ClF3
mp-767204,-3.039031529,Li2V(Si2O5)3
mp-642999,-1.79491583,TmH3(CO2)3
mp-28216,-3.311939339,Lu6Ge4O17
mp-756746,-1.5265952,Rb4PbO4
mp-5626,-0.7829935,K3SbTe3
mp-971864,-2.265301455,U2Ga2O5
mp-28971,-2.900292965,Rb2Si2O5
mp-39215,-2.415891867,Zn3GaB6PO12
mp-5367,-0.420599892,K5SnSb3
mp-776616,-3.150350609,LiV2F7
mp-1009494,-1.077024191,NpN
mp-996983,-0.485059081,AgAuO2
mp-667383,-3.273842145,SiO2
mp-714921,-2.405285912,V6O13
mp-1019579,-1.174944996,CaMg3SiN4
mp-707276,-1.480022296,TeH9SN2O5F3
mp-862774,-0.555068071,LiInPt2
mp-8333,-3.031391002,RbNaSnF6
mp-631500,0.574161725,BaHfMg2
mp-2651,-4.432800152,PrF3
mp-10698,-0.748297962,Ba(GeRh)2
mp-1282,-0.413153719,VC
mp-1018135,-0.484786023,LiCdAs
mp-980055,-0.081454496,YErMg2
mp-619571,-1.886414901,ScU8S17
mp-703350,-2.848086997,La2(GeO3)3
mp-32525,-2.663721935,Li2V(PO4)2
mp-23291,-1.545715676,PbCl2
mp-11516,-0.148767885,NbRu
mp-7079,-3.526828899,CaZrSi2O7
mp-864888,-0.054936,Dy2Mg
mp-6574,-2.52800613,Er2C(NO)2
mp-862855,-3.873376252,PaO2
mp-763274,-2.165141502,Mn3(O2F)2
mp-698655,-2.277464241,KMgIn(MoO4)3
mp-22307,-0.919305444,ScSi2Rh
mp-775170,-2.508411781,Li2AlCr2SbO8
mp-675295,-1.644445891,InPF3
mp-10078,-0.666726511,TbTiGe
mp-8642,0.058801822,Re
mp-864932,-0.576821362,Mg2AgPt
mp-755206,-3.169153825,Ca2Ti6N2O11
mp-9529,-0.987045572,DyGeRh
mp-774466,-2.429502581,CoP6(WO8)3
mp-677733,-3.008556502,K2TiAl(PO4)3
mp-4475,-0.222180655,Tl(CoSe)2
mp-558110,-1.717758312,TiS2
mp-769618,-1.770719459,Ni4P2O9
mp-1020020,-1.560124818,Li8NO3
mp-771121,-3.986043083,La2HfO5
mp-980108,-2.929293564,Sm2MgIrO6
mp-23427,-2.567861252,Ti3(BiO3)4
mp-18825,-2.780310378,YCrO4
mp-7323,-3.188689844,RbBe2BO3F2
mp-7355,-1.848542278,Sm2SnS5
mp-554383,-2.916257312,Na2Si2O5
mp-763008,-2.050837772,Mn2O3F
mp-10607,-0.523733116,Lu3TlC
mp-17460,-0.644291286,Lu5(Co2Si7)2
mp-556469,-3.277563403,SiO2
mp-17381,-0.80471392,Y3Ge4
mp-778259,-3.526175098,PrHfO4
mp-541062,-1.015349785,Ca3GaAs3
mp-972877,-0.72901716,Sc2AlIr
mp-28595,-1.093537469,KNaSe
mp-695929,-0.690303971,Cs3B6H12S4Br
mp-21342,-0.068700875,V3Sn
mp-867978,-0.666676091,SmInRh2
mp-771955,-2.102468026,Sr3LaBr9
mp-7148,-3.172835591,K2SrTa2O7
mp-30001,-1.025530704,Ba16Nb5N19
mp-11844,-0.302764863,Ho6GaCo2
mp-8965,-1.126151873,K2Sn2S5
mp-771095,-1.90324109,Mn3Cr3(SnO8)2
mp-8653,-0.76438702,CeSiRu
mp-758233,-3.036011994,Nb9PO25
mp-559319,-2.451450743,Zn2P2O7
mp-707342,-0.61956749,ZnH18Ru2Br7N6
mp-20326,-1.065905958,U(PS3)2
mp-33322,-1.680186983,LiHoSe2
mp-778317,-2.824269842,Ti3NbFe2(PO4)6
mp-556328,-0.448454822,AsS
mp-30235,-0.921969054,Lu3Ge3Ir2
mp-2961,-0.420244739,MgSiP2
mp-560226,-3.304973961,NaNd(Si3O7)2
mp-21134,-0.281943536,K(InAu2)2
mp-622009,-0.468445365,TaNi2TeSe
mp-555184,-3.524273826,SmTiClO3
mp-779899,-2.055351254,Fe6O7F6
mp-558745,,Rb4NpS2ClO10
mp-975443,-0.92520181,InCuO3
mp-634466,-1.055556448,HgH12(ClO7)2
mp-560791,-2.761002407,CsNaTiO3
mp-54,0,Co
mp-13666,-1.029913079,Ti(PS3)2
mp-753572,-2.1915736,Li2Cu3F8
mp-32640,-2.438597599,La5S8
mp-763787,-1.704285743,Fe8O9
mp-982725,-0.148153365,Nb2RuW
mp-773074,-3.162354866,LiZr2(PO4)3
mp-676800,-1.092233581,Ti7Ni3N10
mp-28456,-1.461574361,Sn15Os3O14
mp-675068,-3.730927501,Nd2Zr8O19
mp-757981,-2.004049318,Na2SnGe2(HO4)2
mp-11570,-0.427158371,TbSn3
mp-11665,-0.37824598,Ce2(Zn2Ge)3
mp-994,-1.626711936,YP
mp-780863,-1.795324445,Li4V2Fe3Cu3O16
mp-705301,-2.361107611,LiCoP2O7
mp-770743,-3.375784554,Li2Hf2O5
mp-3404,-2.222877287,RbSO3
mp-756104,-0.642525912,Ge11N11O5
mp-17095,-0.425774312,CsCuSe4
mp-561005,-2.422375805,SrBi6(PO5)4
mp-16724,-0.373958034,Zr5Al3
mp-686004,-2.285919394,Li3ScCl6
mp-29683,-1.937004843,Sr2Ru3O10
mp-554759,-2.255615815,SrBNO
mp-971982,-0.306531186,Tm2ZnCu
mp-631530,0.82722748,Hg2BCl
mp-771335,-2.243942696,Na3SnPCO7
mp-559737,-3.745896526,Rb2Tb3AlF16
mp-7157,-0.419441232,Tb(AlGe)2
mp-758427,-1.58721114,Li2Cu3(CO3)3
mp-7094,-1.733443676,ReAgO4
mp-10260,-0.10603311,Ni3Sb
mp-698353,-1.531718309,KBiH10C4O13
mp-29605,-3.520599453,SrPr2O4
mp-5985,-3.764408949,HoTaO4
mp-780471,-2.43115757,LiV2P4(HO8)2
mp-510032,-0.066562884,Ge3Os2
mp-1782,-1.591047357,ScSe
mp-29218,-1.991903125,Ge3Bi2O9
mp-540782,-0.483032311,V4As3
mp-22569,-2.49178144,InPO4
mp-21450,-0.808758207,Nd2InPd2
mp-977360,-4.429984151,AcF3
mp-558748,-3.915413077,Sc2O3
mp-570258,-1.291058223,Ca3(AlN2)2
mp-20352,-2.520020753,Ba3In2O6
mp-4177,-0.91635112,Dy(SiRu)2
mp-27367,-1.791369432,SeOF2
mp-985626,-2.048117818,Na3Mn2SbO6
mp-763256,-2.373100665,LiCoSiO4
mp-756758,-1.051816647,CuH4(IO4)2
mp-6267,-3.460142896,LaSiBO5
mp-18996,-2.210150079,TlV3O8
mp-22870,-0.674636589,InBr
mp-27823,-3.49488707,SmClO
mp-561065,-3.171066069,MgTi2(PO5)2
mp-559020,-2.571846755,KBi(PO3)4
mp-29559,-1.477323984,La3Si3Cl2
mp-510209,-0.472856145,Sc5Pb3
mp-998160,-2.235912582,TlCoF3
mp-631344,0.953632626,NaOsSe2
mp-763927,-2.760185217,V6O7F5
mp-778223,-2.6533526,Li4Ti3Mn2Cr3O16
mp-570857,-2.154973443,Y(AlCl4)3
mp-8231,-2.889665976,ZrSO
mp-568986,-1.304638885,KAuCl4
mp-558455,-2.448026953,Na4Li5(BO3)3
mp-23534,-0.730590328,KSn2I5
mp-18130,-3.625338607,Nd2Si2O7
mp-776896,-2.996327183,Nb2O5
mp-686467,-3.60915557,Sr14La6Mg3Ti17O60
mp-849760,-3.267451927,Al11AgO17
mp-1008872,0.032974887,MnFeTe
mp-555396,-2.912800551,Mg2PClO4
mp-540569,-1.173755578,CsCr5S8
mp-556985,-3.244634396,SiO2
mp-569477,-0.814039296,La10Al5Br4
mp-585476,-2.586567466,Cs7Np3(Cl2O)6
mp-780086,-2.290193121,Li8Mn(O2F)2
mp-13120,-0.724330375,CeSi3Ru
mp-866142,-0.667767809,TiGaIr2
mp-569378,-0.702472,Rb3Ta2AgSe12
mp-23776,-1.554112194,BeH8(ClO2)2
mp-779015,-1.103553842,SmHIClO13
mp-766176,-2.535969475,LiSiBiO4
mp-721924,-2.58046403,CaFe3Si2HO9
mp-617312,-0.672969123,Sm3Si2Ni
mp-559144,-1.747318752,GePb3O5
mp-772721,-2.402908581,LiSi6Bi9O26
mp-672299,-0.503198657,YInNi
mp-771909,-2.439873868,Li4Mn2P4H3O16
mp-774396,-2.481670489,Li8Mn5Fe3(BO3)8
mp-30181,-0.595756609,PrAl3Ni2
mp-838,0.065795891,Cu3Sn
mp-32363,-1.864652872,NiP2O7
mp-29827,-0.389176852,Rb4Hg5Te13
mp-862660,-0.52285119,LiEr2Rh
mp-4064,-0.852815448,Ca(NiP)2
mp-721239,-0.825297939,Li10Ge(PSe6)2
mp-775868,-2.385709188,NbFe3(PO4)6
mp-33560,-2.402034792,Ca(CeS2)2
mp-697796,-2.495035696,Li2Cr5(PO4)4
mp-29009,-1.532176486,Li2MgBr4
mp-571006,-0.395455389,YbP5
mp-675069,-2.91124345,LiNbO3
mp-20840,-0.104242314,MnCo2Sn
mp-770502,-2.552028824,Li6Cr3Co(PO4)6
mp-6055,-3.242284659,Sm2SiTeO4
mp-30817,-0.631633327,LiAl2Pd
mp-11438,-0.313978226,Sc(GaFe)6
mp-770562,-2.374426484,Li6AlCrO6
mp-977407,-0.697868867,Hf2ReRh
mp-961704,0.650135417,NbTlPt
mp-17262,-1.803970263,BaCu2(AsO4)2
mp-752432,-3.711043703,Gd3NbO7
mp-865030,-0.733980514,HfScRu2
mp-7908,-0.460846266,Al2ZnTe4
mp-4226,-1.327169052,LiCrS2
mp-1016845,-2.511589734,ZrCdO3
mp-8408,-0.587604085,Er(BRh)4
mp-17413,-0.786844569,Ti3Rh5
mp-755717,-3.902897444,SmHoO3
mp-27559,-1.473001875,Na14Cd2O9
mp-29365,-1.962998504,Li5BiO5
mp-570308,-0.546254416,Eu(NiSb)2
mp-697179,-0.491527536,ZrH
mp-1958,-1.746246005,SrTe
mp-505390,-2.761578306,Ba2ReO5
mp-777314,-0.6053136,Sn2N2O
mp-773191,-2.140903538,Li6Cr3Sb3O16
mp-16515,-0.627029828,Al4Ni3
mp-989407,-1.182394217,YWN3
mp-20587,-2.474633387,EuS
mp-31004,-1.680023457,Sn(SO2)2
mp-1078,-0.332680098,CaCd2
mp-6933,-0.390232186,MnN
mp-560064,-3.274935497,SiO2
mp-559627,-2.579485299,LiP3PbO9
mp-1004532,-0.621997083,CCl4
mp-777891,-2.854465297,LiFeF4
mp-555495,-2.853576986,K3Y(BO3)2
mp-561999,-2.93108112,CsAlAgF6
mp-998599,-1.958810409,KCaBr3
mp-18962,-2.900400706,Sr2CaMoO6
mp-757639,-2.732590869,LiTi(PO3)4
mp-1009540,0.717942323,OsC
mp-29085,-4.180468674,Sr5Zr3F22
mp-510646,-0.823434574,TlPPbS4
mp-33872,-3.751248738,Na7Zr6F31
mp-769278,-2.153544013,LiCuPO4
mp-13154,0.053099992,Fe3C
mp-19406,-3.206833001,La2MgMnO6
mp-765840,-2.55286069,Li4V3Co(PO4)4
mp-776082,-3.279213119,Ti3NbO8
mp-757206,-3.493722407,BaTi6O12
mp-765076,-2.63277223,LiMnOF2
mp-34472,-1.841100155,Na(Nd2Se3)4
mp-31723,-2.679577496,Li3Cr(PO4)2
mp-27390,-3.536594317,K5ThF9
mp-24610,-2.249960216,LiP(HO2)2
mp-6459,-2.590765189,CaMg(CO3)2
mp-27678,-2.205427382,Y2Cl3
mp-565757,-3.270860713,Gd2WO6
mp-973635,-0.359496085,Lu2ZnIn
mp-771839,-1.87434298,Na4Co2C4SO16
mp-8763,-3.05204187,Tm2S2O
mp-866224,-0.646832393,Be2NiPt
mp-11790,-1.340005191,LaCuSe2
mp-753063,-2.616214795,Li3CuF6
mp-772098,-1.111039077,Sm(ClO4)3
mp-5311,-1.19833095,UBN
mp-976082,-0.064814073,Mn2GaW
mp-30157,-2.613905612,Dy3S2Cl5
mp-976262,-0.039521587,LiMg
mp-981547,-0.606629998,PrH3
mp-540812,-3.421387182,Sr2CuF6
mp-24074,-2.324860508,Dy(HO)3
mp-319,-0.26775614,Sm2Tl
mp-975037,0.182238472,Rb3Ba
mp-985297,0.223932173,Ag3Rh
mp-21027,-0.687535697,CaIn2Pt
mp-2297,-0.118931988,NdC2
mp-866127,-0.380552758,LuTaOs2
mp-974061,-2.164272514,KSiO3
mp-540496,-2.212345373,Cu(PO3)3
mp-861661,-0.1149656,LiPr2Ru
mp-672340,-0.149515804,LiIn2Ru
mp-582572,-0.688928117,ErNiGe2
mp-1013850,-2.685690067,LiV2P2O9
mp-973953,-2.339698451,NdCl2
mp-504482,-1.218341715,AlInS3
mp-641509,-0.110193665,In9Ni13
mp-6500,-3.582318395,KRb2ScF6
mp-570492,-0.592079816,CdI2
mp-998883,0.346462655,Ge
mp-760773,-1.936454267,LiCu2F7
mp-763567,-2.077659845,LiV(CO3)2
mp-30429,-0.368705268,Ba8Ga7
mp-775268,-2.512096559,Li8Mn7Fe(BO3)8
mp-541916,-0.466059091,Rb2Ag(AsSe2)3
mp-557397,-2.905530842,K2MnF6
mp-973480,-0.55145565,Nd(BRh)4
mp-772214,-3.274315699,LiZr2O4
mp-989633,-1.226669033,LaWN3
mp-867243,-0.439570765,Sc2ZnOs
mp-28978,-2.017028287,Ba2S3
mp-10154,-0.192643333,MnSbIr
mp-981233,0.364005926,UCr3
mp-23383,-1.05395611,Rb2TeBr6
mp-755001,-3.005133714,Er2TeO6
mp-553914,-1.120461198,KCdCu7Se2Cl9O8
mp-777466,-2.966652195,Li2FeF4
mp-570835,0.028039518,NiHg4
mp-14778,-2.338283951,Ca3Zn3(TeO6)2
mp-766855,-1.555160705,BaH9IO5
mp-3173,-0.384792157,CaAlSi
mp-568619,-0.203912288,SiC
mp-744577,-2.367028591,FeP2HO7
mp-646007,-1.537297003,Cs2Tb6Te7N2
mp-27360,-1.939412903,ReBiO4
mp-21882,-0.449750142,Ce(FeGe)2
mp-677222,-3.559942546,Ba3La3Ti4NbO18
mp-570738,-0.476039869,GaI2
mp-972236,-0.096672025,V2MoW
mp-30783,-0.057362679,Sr9Mg38
mp-644003,-2.35486023,BaCo2P2H2O9
mp-13643,-3.096274769,Er2Ge2O7
mp-568890,-0.26725514,Tl2CdGeTe4
mp-697758,-2.558352697,LiFeP2O7
mp-978939,0.057921911,Sm3Th
mp-27760,-0.600461042,PrSi2
mp-8399,-2.72759354,CsCdF3
mp-770660,-2.362349134,Li12CrGa11O24
mp-676620,-0.67261483,Li27As10
mp-766603,-2.243776444,Li5Fe8(BO3)8
mp-753153,-3.282812291,Dy2CO5
mp-862760,-0.272412736,PrCdAg2
mp-560927,-3.822204578,Y4Al2O9
mp-864985,-0.187284576,MnZnIr2
mp-761118,-3.05167022,Ti7Sn3O20
mp-974743,0.952490687,Rb3V
mp-7020,-3.274531478,LiYO2
mp-571448,-2.295871867,Cs2PuCl6
mp-672200,-0.262186792,RbC2N3
mp-973166,-0.075231164,NaCd3
mp-1848,-0.331322429,Te2Ru
mp-2693,-0.429060002,SnSe
mp-21157,-0.813239699,TmNiGe
mp-9824,-1.885460323,Ho2Se3
mp-29658,-0.522308575,ZrNiH3
mp-560340,-2.590890799,La2Pd2O5
mp-9333,-1.009429358,La3TiSb5
mp-568559,-0.372475204,YbAg2
mp-555941,-3.131314611,AlPO4
mp-39886,-2.640069814,BaCaLaBiO6
mp-621351,-0.739529183,SmInAu
mp-774754,-2.50233904,KRe4O8F13
mp-20782,-0.6279454,LiInTe2
mp-18757,-2.612459737,Sr2CdWO6
mp-764813,-2.121862738,FeOF
mp-16238,-0.460086562,Li2AgSb
mp-38505,-0.243224701,GaCuSe2
mp-35659,-2.08347269,HgPbF6
mp-776404,-3.827886569,ZrO2
mp-973935,0.048007713,OsN2
mp-769405,-1.769000809,Ho(Bi3O5)4
mp-781976,-2.447348578,Li2CuF5
mp-676009,-0.54912967,Na3Cr11Se20
mp-767633,-3.267823118,Li4Ti9O20
mp-19127,-2.436925826,Sr2FeMoO6
mp-1016879,-2.190245991,CdSiO3
mp-8922,-1.869433862,Cd(SbO3)2
mp-975057,0.66721499,Rb3Dy
mp-20774,-0.588355202,NdCuSn
mp-561141,-3.143826505,KYP2O7
mp-540438,-2.61343364,LiMn(PO3)3
mp-638078,-1.101778342,CsTbZnTe3
mp-11281,-0.225765219,Be2V
mp-775178,-2.476550907,LiFe2OF3
mp-865466,-1.943552937,TiH8(NF3)2
mp-767601,-2.325429107,Li6Mn2O5F2
mp-6775,-2.824391825,Na3Sr(BO2)5
mp-540945,-2.087749515,Na2Li3GaO4
mp-4897,-0.879989865,ScSnPd2
mp-866037,-0.34417095,GaNiRh2
mp-570150,-0.386341604,CaAlSi
mp-560571,-1.583735046,LaPS4
mp-9665,-0.346154983,K3BAs2
mp-541995,-3.803760032,LaSiO3F
mp-574273,-0.438540425,Ce2Co5B2
mp-2341,-0.450978801,Li3N
mp-1692,-0.954671697,CuO
mp-977546,-0.45781344,Pm2ZnGa
mp-10577,-1.055906536,Sr5NbN5
mp-16060,-1.419927255,AgAuF4
mp-976600,-0.232973915,LiHf2Tc
mp-775961,-2.194283257,Li4MnSn(WO6)2
mp-780456,-3.126267287,Ta2Nb3O12
mp-3082,-2.799194923,CaSO4
mp-19131,-2.530928772,LiMnBO3
mp-505438,-3.030430214,BaGd2PdO5
mp-720554,-1.870073861,LiPH4NO3F
mp-625890,-1.052954618,H5IO6
mp-9262,-2.477841901,Cs2PtF6
mp-770289,-3.888862686,Ho2Zr2O7
mp-569849,-0.233378452,Li15Si4
mp-1275,-0.297078236,SiMo3
mp-5611,-3.686822841,BaUO4
mp-38222,-0.201403649,NaCN
mp-17834,-3.41525966,La2SiSeO4
mp-31243,-0.791510756,BaAs2
mp-4223,-2.532208135,Na3PO4
mp-776225,-2.548789309,Hf2N2O
mp-557668,-2.218193722,MnPtF6
mp-10963,-0.246478782,Ag2SnHgSe4
mp-977107,-1.545810498,NaRuO3
mp-18959,-3.346470387,Y2Be2Fe(SiO5)2
mp-530,-1.062719132,Nd4Sb3
mp-772118,-1.756001521,NaCuCSO7
mp-772597,-1.370059729,Li2CuNiO4
mp-752411,-2.571105608,Tm2Pb2O7
mp-971827,-0.3396752,Zn2CuPt
mp-754610,-1.618346757,Sr3CaI8
mp-656887,-0.805186958,Ni3O4
mp-4505,-0.843914717,La3AlN
mp-684990,-3.112344511,Al2O3
mp-570623,-1.575242268,Pr4Te3N2
mp-567526,-0.022621357,SrMg4
mp-21902,-0.610659089,Th2FeB10
mp-1372,-0.103027776,Cd3As2
mp-22275,-1.076177902,YSnPt
mp-583052,-0.988835147,LuCuPbSe3
mp-989573,-1.164928612,Rb2BrCl6F
mp-12908,-1.093355352,ScAgSe2
mp-567164,-0.383774468,BRh
mp-780941,-2.434364871,LiV2P4(HO8)2
mp-13382,-0.633763444,CeZnPd
mp-775011,-2.304125836,Li2NbFe3O8
mp-16990,-3.28303693,Ba10P6SO24
mp-767678,-2.157980349,Li8Cr3TeO12
mp-3411,-0.479490519,Tl(MoSe)3
mp-30356,-0.311849986,SrAg2
mp-30413,-0.69274259,TbPbAu
mp-780169,-2.47243779,Hf2N2O
mp-865043,-0.671237843,MgInPd2
mp-568537,-0.693502553,YbInAu2
mp-625657,-1.405703623,TeHO3
mp-555512,-1.902462938,RbCO2
mp-21418,-0.338359235,MnSnPt
mp-756581,-3.419416347,LiNdTi2O6
mp-14024,-1.553406817,Zr3O
mp-27859,-1.574301507,SbI5F6
mp-558798,-2.432377485,BiPO4
mp-675033,-0.257091527,Ga12Ag2Te19
mp-35785,-2.051975745,Y2CdS4
mp-10602,-0.316074273,Sm3GaC
mp-746071,-2.438317293,KFePO4
mp-686765,-3.206697561,YTi2CdO6F
mp-774395,-2.134719832,Fe10O11F9
mp-569970,-0.796956565,ZrHg3(SeBr3)2
mp-997055,-1.242143534,CuBiO2
mp-1015811,0.452950836,AlCo2Si
mp-626794,-1.180091961,Ni(HO)2
mp-11321,-3.860547807,Y3TaO7
mp-16566,-0.273936725,Cu2SnHgSe4
mp-23228,-1.066537256,PCl5
mp-569737,-1.037891072,Tb(SiPt)2
mp-505464,-0.257975771,Cs2Te13
mp-768078,-2.739126794,Cr4Si4O13
mp-755804,-3.671096673,Lu6TeO12
mp-707866,-1.765439235,SrZnH6O5
mp-978988,-0.47815446,TbTmHg2
mp-3045,-0.252265415,ErFe4B
mp-744580,-2.432225495,ErCrHO5
mp-12641,-3.483732785,Ba2HoNbO6
mp-768353,-3.975235305,YTmO3
mp-14090,-0.236260832,TlCuSe2
mp-756451,-1.159386072,CaPbI4
mp-631512,0.836186851,BaCaRu2
mp-775298,-2.177493727,Li4Mn2Cr3Sn3O16
mp-770902,-1.78078891,LiFeAsCO7
mp-34987,-2.374906742,Sm(DyS2)2
mp-625397,-2.288814636,Nd(HO)3
mp-12023,-0.840417735,MnCu2SiS4
mp-9911,-1.212722441,K3SbS4
mp-697926,-1.561990102,LiCd2HSe2O7
mp-570849,-0.021379751,Mg5Tl2
mp-28809,-0.773593667,TlBS3
mp-570339,-0.643132157,Tl4CdI6
mp-979982,0.336934052,YbPu3
mp-755375,-2.558837488,Lu2Pb2O7
mp-979292,0.010817664,SmY3
mp-2280,-0.078454435,CuSe2
mp-19025,-2.951810875,LaMnO3
mp-505552,-1.433478801,Cd2Ru2O7
mp-560865,-3.18549834,ZrCuF6
mp-774389,-2.709216651,Li4MnV3(P2O7)4
mp-14552,-3.52831803,Ba2SrUO6
mp-542951,-2.490404988,Cs2NaHoCl6
mp-769398,-1.386789032,Na3IO
mp-1013543,0.15788516,Ca3AsN
mp-865659,-0.613203749,Y2ZnIr
mp-554084,-2.409320162,BaBi6(PO5)4
mp-5150,-0.832477399,HoSi2Ni
mp-2597,-0.282238592,InTe
mp-769129,-1.674255981,Li3SbN3(O3F)3
mp-764348,-2.605427478,LiFeSiO4
mp-1336,-0.802708542,PdO
mp-5682,-0.859395054,Th(SiNi)2
mp-568001,-1.254395621,AlHg2SbCl4
mp-1016904,-1.843997146,VCdO3
mp-24037,-0.324615043,CoH9(CN2)3
mp-568143,-0.574351362,TmB4
mp-558534,-3.396628076,Tm3B5O12
mp-20545,-0.528387559,Cu3AsS4
mp-981313,-2.294557013,KTbO3
mp-690653,-0.634203809,NaH3CN4O
mp-21266,-2.56899713,BPPbO5
mp-775326,-2.935656773,Li2Ti3NiO8
mp-1019728,-2.807789107,RbEu(PO3)4
mp-569373,-0.349171667,Li8Zn2Ge3
mp-755007,-4.094634602,CeOF
mp-505002,-1.117384203,Sc5As3
mp-765686,-2.392352717,Li2Co4OF8
mp-772811,-2.152806763,Na2Ge2O5
mp-755472,-1.890352724,BaCuO2
mp-676561,-0.216878113,Ag3SI
mp-680198,-0.816814481,Cs4Th2P5Se17
mp-4109,-0.702444298,Ba(AsRu)2
mp-685138,-0.863349902,U2AsSe
mp-638686,-0.772912949,AgNO3
mp-6449,-0.845961153,CdCu2SiS4
mp-1019105,-0.468842011,KMgBi
mp-24397,-1.769546851,MgH8SO8
mp-754712,-0.729200256,NClO3
mp-569931,-0.975639044,Pr(NiP)2
mp-772510,-4.143145211,YTh4O10
mp-572986,-3.395727528,Cs2Np2PO4F7
mp-1562,-0.16823737,ThBe13
mp-766600,-1.554330769,Li4TiS4
mp-772610,-2.023137941,Ho2(SeO4)3
mp-973461,1.520039758,Hg3C
mp-676049,-3.249364705,KBF4
mp-3525,-0.18932194,Sb2Te2Se
mp-31287,-0.704095731,Tl3PdBr5
mp-581644,-3.664146996,Y2Si2O7
mp-780978,-2.308130939,Fe4O3F5
mp-10688,-3.246424309,CeO
mp-862682,-2.547192294,Ba2Ga2O5
mp-102,0.01915361,Co
mp-698074,-2.497271383,Ca2H2S2O9
mp-27679,-1.275511809,LaBr
mp-2051,-0.217816736,LaCu2
mp-862666,-0.82775675,DyGaRh2
mp-6765,-2.649085674,Li3AlGeO5
mp-8244,-1.104918287,Ti5TlSe8
mp-29595,-1.508263018,CeBN2
mp-11563,-0.722748133,TiRh
mp-777785,-2.861816022,LiFeF4
mp-867228,-0.564407374,K2Mn(PSe3)2
mp-549490,-2.624843803,KNb4O5F
mp-1310,-0.749084323,TbRh2
mp-3790,-2.869881779,SrNb8O14
mp-867291,-0.568349395,Tb2IrRu
mp-14676,-3.446209549,NdTa7O19
mp-3015,-0.413047339,HoInCu
mp-27871,-0.449434691,RhBr3
mp-22304,-0.576005941,Cd(InSe2)2
mp-24479,-1.211390574,SrH2Br2O7
mp-12696,-0.693621424,YMgPd
mp-862802,-1.502350535,CsNpCuS3
mp-770563,-2.555835657,Mn3(PO4)2
mp-1127,-1.073456287,SmPt2
mp-1491,-0.742361404,VB2
mp-22925,-0.284536738,AgI
mp-36791,-2.104686665,LiNdS2
mp-571637,-0.744300356,K2Cd2Te3
mp-510522,-0.566100788,Zr5Sn3
mp-766170,-2.88564308,Li9Ti5(SiO8)2
mp-504442,-0.471049098,U4Re7Si6
mp-571183,-0.144806055,TmFe2
mp-782665,-3.020628801,LiVF3
mp-566368,-2.156249602,K2Te(WO4)3
mp-765692,-2.23593671,LiCo2OF3
mp-4939,-0.677773994,Dy(FeSi)2
mp-562726,-1.2324924,CsGaS3
mp-23734,-1.938731316,MgP(HO)7
mp-767086,-3.241462855,Li5MgTi12O24
mp-24285,-0.215055225,NpH2
mp-505019,-0.326868579,USb2Ru
mp-3031,-3.38090695,BaSi2O5
mp-3491,-2.538603791,NbSbO4
mp-27787,-1.433952252,NbPCl10
mp-763440,-2.294381589,Li8Mn(O2F)2
mp-23417,-0.466696044,InSn2I5
mp-557393,-0.542359083,K3AgC4(SN)4
mp-1159,-0.140193467,Zr2Fe
mp-542944,-1.66689919,Cs2CuH12(SO7)2
mp-2822,-1.651319299,TmSe
mp-7394,-1.104595053,BaAg2GeS4
mp-19809,-0.452415894,MnCoSi
mp-27907,-0.712964413,Sb6Pb4S13