id,formation_energy_per_atom,pretty_formula
mp-582108,-0.834758769,Sr21(Cd2Bi9)2
mp-26742,-1.868804915,Cu4(PO4)3
mp-780292,-2.483379166,Li8Mn5Fe3(BO3)8
mp-696123,-1.260512907,Li10Sn(PS6)2
mp-541285,-2.486220787,Th(TeO3)2
mp-29816,-0.471851564,Ag2HgO2
mp-775435,-2.62941653,Li3MnV(PO4)3
mp-866007,-0.20312285,DyMgTl2
mp-556340,-2.77224237,CaTaNO2
mp-558648,-1.808691375,CSCl(OF)3
mp-735541,-1.747478322,NiSn2H12(OF)6
mp-1814,-0.167247639,BaAg5
mp-9946,-1.139370304,ZnS
mp-976075,0.044774749,Li3Ca
mp-568196,-0.79643599,Er3CoSi3
mp-19096,-2.943477824,Ba2VO4
mp-1001785,0.027210924,MoP
mp-1014265,-1.344705261,Zr2N
mp-754152,-2.777057835,YBiO3
mp-696994,-2.005732448,Zr2H16SN3(O2F3)3
mp-1793,-0.502340972,Zr3Te
mp-771323,-3.828435295,Tm2Ti2O7
mp-764652,-2.364458679,LiFe2(BO3)2
mp-1477,-0.358690784,BaSi2
mp-33107,-1.713446608,SF4
mp-777277,-1.973754269,Li2Cr3CuO8
mp-18636,-0.622808366,Ba3Sn5
mp-568498,-0.969289971,Sm2(CN2)3
mp-10271,-0.011143783,ZnCo3C
mp-5557,-0.575843167,ThB4Mo
mp-669326,-0.59057874,CdI2
mp-754659,-2.86196156,Zr3N2O3
mp-720642,-2.245501287,NaB3H4O7
mp-560908,-1.145611926,V3S4
mp-567159,-0.334949006,Dy6Ti4Al43
mp-532676,-1.7996501,LiMgAl3(SeO4)6
mp-569462,-0.614306961,Pr15Si10Ni7
mp-27428,-0.858178893,KBrO4
mp-569943,-1.084815058,K2AgI3
mp-542449,-2.140790009,Sc5Cl8
mp-554515,-1.910550356,KScH4(C2O5)2
mp-567712,-0.588690777,PrCoGe
mp-849325,-1.037355397,SbH4NCl6
mp-15339,-0.966273944,Sr3As4
mp-774658,-2.407981985,LiSnPO4
mp-777047,-3.297170804,LiTmO2
mp-21464,-0.275035943,CoReB
mp-25896,-2.282228113,SbP2O7
mp-632502,-0.504801883,Zr2InNi2
mp-626785,-1.614645065,KHO
mp-18907,-3.044967689,Ca2MnAlO5
mp-567817,-0.46368022,HfGeTe4
mp-643359,-0.483940757,Rb2Sn(H2N)6
mp-754117,-3.012455427,YHO2
mp-7480,-3.112226027,RbLuO2
mp-780399,-2.413980603,Na6B4Sb2PO16
mp-774397,-1.726693032,Li4Mn2Co5O12
mp-2783,-0.554364793,Ta2Si
mp-771336,-2.524142715,Na3MgPCO7
mp-616490,-2.758132615,KYb(PO3)4
mp-5590,-0.512920476,YMgGa
mp-11215,-0.501270769,CeAgGe
mp-569804,-0.826503493,Er5Zr3(Ni4As3)4
mp-631497,0.718129627,BeInBi
mp-18308,-2.72422782,CaZn2(PO4)2
mp-1019526,-3.170646518,Ba3Si2(B3O8)2
mp-772297,-1.84838878,Li2Cr2O7
mp-867745,-0.793029874,Ge2N2O
mp-971799,-0.49396025,DyYHg2
mp-770706,-2.30857156,Li6MnAlO6
mp-8943,-1.585125646,PtF4
mp-3759,-2.5593035,MgGeO3
mp-675797,-1.83668335,Zn7(SbO6)2
mp-770388,-1.796993856,RbFe3O5
mp-20381,-0.722186477,HfGaPd
mp-539,-1.061926707,Ga2S3
mp-865950,-0.20367232,AcAg3
mp-745175,-1.42982905,CrH12(ClO2)3
mp-706400,-2.382091528,BaP2(HO2)4
mp-568048,-0.324306879,Hf54Os17
mp-14912,-3.191894538,La4Si2Se3O7
mp-975588,-1.620415453,PuPtO3
mp-20182,-0.47066984,GdRh3C
mp-1018177,-0.028307839,EuC2
mp-541747,-1.952550451,MgGeH12(OF)6
mp-21689,-0.696121856,CeGe3Pd5
mp-766098,-2.870359577,LiTi3Sb(PO4)6
mp-769965,-1.946848654,Li2Cr3CuO8
mp-6208,-3.411200377,Ca2BeSi2O7
mp-31234,-0.633685984,Ca4As7Ir8
mp-978828,-0.026087498,Sm3Zn
mp-775217,-2.300065313,CoSb3(PO4)6
mp-540363,-2.550181414,VP2O7
mp-27133,-0.735732855,BiPS4
mp-1395,-0.23885305,VRu
mp-15751,-3.556188703,Ba3Y4O9
mp-755723,-2.570989818,Er2Pb2O7
mp-26585,-2.57498169,Li5Sb2P5O18
mp-622210,-2.183603313,Ba2LaCu3O7
mp-10070,-2.647113094,BaAg(PO3)3
mp-561157,-3.380625102,Sr3Y2(BO3)4
mp-639741,-3.276340322,SiO2
mp-753048,-2.781990216,TiSnO4
mp-754144,-1.518042829,BaYI5
mp-541761,-1.416534198,Zn3As2(HO)16
mp-984761,-0.313440459,CsRb2Sb
mp-646420,-0.678703853,Nd2InRh2
mp-768820,-2.481728377,Li3Bi(BO3)2
mp-558894,-3.025023432,Ba4Ti2PtO10
mp-29089,-0.818376968,Sr2GeN2
mp-759432,-2.352165224,LiCu(PO3)3
mp-3804,-0.932495373,Sr(PRu)2
mp-767955,-1.575125325,Li3Fe2(NiO4)2
mp-6879,-2.030289607,Ba2CaCu2HgO6
mp-5773,-2.205813666,BaRuO3
mp-30147,-0.988453852,ZrTiAs
mp-556820,-3.228278995,Sm3Si2Cl5O6
mp-558576,-2.530401857,ReSb(OF4)2
mp-569896,-0.124907008,K14(Tl7Cd3)3
mp-690521,-2.089235733,K3CrF3
mp-5637,-2.449941892,SrZnO2
mp-18848,-2.991901566,Sr2MgWO6
mp-542,-0.539771445,SrHg
mp-19485,-3.248390631,Ba5Gd8Mn4O21
mp-10394,-0.085358612,CrCoGe
mp-1941,-0.362452905,GaNi
mp-23357,-2.371476329,Sr2Bi2O5
mp-30926,-3.103004671,LaB5O9
mp-13634,-3.683446153,Cs2LiAl3F12
mp-22337,-0.442225902,Hf5Ga3
mp-697820,-2.650979531,BaLaMnInO6
mp-545548,-3.372954314,BaHf(PO4)2
mp-703273,-3.296431561,KBaLiZnF6
mp-5504,-2.700679095,BaCO3
mp-557195,-3.17472149,KCa2Nb3O10
mp-29456,-0.765781923,Rb2IN3
mp-755044,-3.762810037,CaTb2O4
mp-23774,-0.360790788,K2LiAlH6
mp-699570,-0.983221439,VTe4Cl4O
mp-780474,-2.449514046,Li3MnFe2(BO3)3
mp-758101,-2.369612053,Li4Cu3F10
mp-764913,-2.050758928,Mn2O3F
mp-27872,-3.238622616,MgTi2O4
mp-567917,-0.241384402,TlBi(PSe3)2
mp-780216,-1.949418581,Li5Fe3O8
mp-31964,-2.645016374,Li2Mn(PO3)4
mp-22830,-0.981152241,DySi3Rh5
mp-818,-0.823929781,SiRh
mp-554505,-2.940710218,KHo(PO3)4
mp-764879,-2.966398045,V4(OF3)3
mp-781954,-2.477595414,Fe5(OF4)2
mp-1007755,-0.5399257,HfAu
mp-2025,-0.243644992,HfBe5
mp-30102,-1.893822268,BaPdCl4
mp-862362,-0.747367035,Sc2TcPt
mp-3291,-0.074228751,AgTe4Au
mp-684641,-0.260419184,Fe2S
mp-863705,-0.340017639,Pm2MgGa
mp-776086,-2.749703284,CaGeO3
mp-541732,-3.236096103,Al3Pb5F19
mp-721317,-1.82389805,Na2CuH4(SO5)2
mp-764262,-1.721382029,Li10FeCo9O20
mp-568506,-0.683859922,Pr2Ni2I
mp-30307,-0.747415131,DyBiRh
mp-555735,-2.087394412,CaIrO3
mp-996966,-1.017363213,KAgO2
mp-865731,-0.419457655,Li2HgPd
mp-889,-0.46463489,Cr3B4
mp-674831,-0.246484377,Cu2S
mp-707735,-1.080731708,MgH12(I4O3)2
mp-761572,-2.523681513,Li2TiCoO4
mp-23372,-1.945043079,Sn2Bi2O7
mp-15217,-1.378252073,Rb2TaAgS4
mp-626450,-1.938961021,PH3O4
mp-19292,-1.657311138,Co(AsO3)2
mp-696931,-1.157469348,TlCuHSeO5
mp-2385,-0.123490883,TaCr2
mp-27453,-2.160818704,Li7SbO6
mp-771642,-1.644843312,Sr2CaI6
mp-772018,-1.640674967,Ba3YI9
mp-2778,-0.336410306,HoAg
mp-643749,-3.741019407,KCaF3
mp-554638,-2.186148317,Ca2Ru2O7
mp-21748,-0.982107859,TbSi3Rh5
mp-546864,-2.47708093,Y2C(NO)2
mp-541148,-3.007330554,KUVO6
mp-5369,-0.647753173,PrB2Rh3
mp-976319,0.3279795,NaHo3
mp-978092,-0.586707844,PrCuGe2
mp-571039,-0.738919141,CaAlPd
mp-19478,-2.144917274,VAg2(PO4)2
mp-18662,-3.700107067,Ho2Si2O7
mp-4176,-1.03599743,La(SiPt)2
mp-24266,-1.192790668,Ca2BHN2
mp-10769,-0.3195111,BaSbAu
mp-1392,-0.242551816,ZnP2
mp-3141,-0.754284235,ErInRh
mp-19418,-2.362485184,VCrO4
mp-753632,-1.258928605,Li2CrS3
mp-720802,-2.13261009,Na6HfH8S5O24
mp-760184,-3.090441168,Na4Ti5O12
mp-776063,-2.747356521,Li2MnPO4F
mp-19877,-0.498233756,ZrNi2Sn
mp-3077,-0.663600661,SmAlGe
mp-762111,-2.280590943,Li2CuPO4
mp-556858,-1.755215419,Al2P3H9(CO3)3
mp-662572,-1.527713548,Ta3In2Cl9
mp-6716,-2.577865815,Ba4Zr(RuO4)3
mp-11371,-0.84092691,ErInPd2
mp-776597,-2.34692003,NaCu(PO3)4
mp-24668,-2.535411893,CsHF2
mp-765193,-2.256790339,LiSn10(PO4)7
mp-980942,-0.076719167,YTmMg2
mp-761314,-1.890902821,Ga2NiO4
mp-684042,-2.520392335,Li3Bi2(PO4)3
mp-4835,-0.618666891,LaCuSi
mp-8127,-2.286651473,K2Mg(CO3)2
mp-754841,-1.888189633,Sc(CuO2)2
mp-28316,-0.111990027,K3LiSi4
mp-755121,-2.297255761,TiBi2O5
mp-581795,-2.3286308,Er2Te4O11
mp-32654,-1.189978456,Sc2Te3
mp-558231,-2.548507865,Ba3Ho2Cu2PtO10
mp-2365,-1.260940631,Pr4As3
mp-865112,-0.26642725,NaPrTl2
mp-19364,-3.194309151,BaDy2CoO5
mp-768103,-2.370009484,NaVPCO7
mp-20804,-0.251246138,Rb(InAu2)2
mp-865299,-0.719703431,TmZnRh2
mp-7348,-0.556455105,Sr(BRh)2
mp-2354,-0.099883591,Ti3Hg
mp-696878,-2.752915146,K3CaP2HO8
mp-685371,0.000569354,Ge9(Sb5Te12)2
mp-33300,-1.697070026,Fe5CuO8
mp-7655,-0.342143393,BaSi2
mp-867727,-1.703679261,Li5(BiO3)4
mp-17902,-1.729097849,K3Na(RuO4)2
mp-557543,-3.115572745,K3LuSi2O7
mp-22772,-2.877401582,Sr2Nb5O9
mp-938,-0.091003237,GeTe
mp-850193,-3.547901539,HoBO3
mp-375,-3.635464153,UO3
mp-17693,-2.829042743,SrCdP2O7
mp-39540,-1.936211416,CrSiH12(OF)6
mp-745034,-1.570386888,RbFeH4Cl3O2
mp-31014,-1.084480491,ZrP2S7
mp-760546,-1.546258319,LiCu2(CO3)2
mp-866813,-1.66207471,Ca2SnS4
mp-16291,-3.40702754,NaZr2PdF11
mp-643394,-1.736821841,NaInH8(NF3)2
mp-757652,-1.293481174,H13S2N3O8
mp-850868,-1.779501649,NbH8N2O2F5
mp-558085,-2.131168305,KNaGeO3
mp-866097,-0.570249763,CuH6BrN2
mp-610517,-0.256712,Ag2S
mp-27916,-0.260837085,AgBiSe2
mp-14722,-3.846739268,NaSrAlF6
mp-686677,-1.913074928,Rb2PH3SeO8
mp-4056,-3.803637775,CaSc2O4
mp-769658,-2.622793839,Li2TiFeO4
mp-554163,-1.037722149,Cu5Se2(ClO4)2
mp-557890,-4.032386022,Er2Hf2O7
mp-20916,-0.314883257,V5Ge3
mp-541963,-0.730008804,Rb3(FeSe2)2
mp-782668,-2.792000518,Li4VP2(O4F)2
mp-9579,-0.745017556,AlTlSe2
mp-19269,-3.148383835,NdCrO3
mp-680204,-3.276365519,SiO2
mp-669345,-1.494663107,TaTeCl9
mp-27638,-0.100584687,NiI2
mp-8298,-1.6453814,Sr4P2O
mp-559390,-3.465631191,CaAl2O4
mp-20072,-2.705253869,LaCuO2
mp-18594,-0.922250301,K3AsSe3
mp-540314,-2.471337048,Fe(PO3)3
mp-7339,-3.400984359,BaSiO3
mp-1009894,-0.193933574,ZrC
mp-9637,-3.288868943,K3NpO2F5
mp-567905,-0.205381326,U3Ni3Sn4
mp-9973,-0.849467693,VB
mp-570453,-1.624075282,Ba4W(N2Cl)2
mp-631303,0.658559318,InReGe
mp-570803,-1.215613896,Ba2Ge(TeSe)2
mp-10393,-0.636942361,SmGaSb2
mp-19477,-3.200605721,Mn2Al4Si5O18
mp-1346,-0.810032146,B6O
mp-23474,-0.674801657,AgBi3S5
mp-33581,-3.20964757,Ba9Nb10O30
mp-865794,-0.594526424,LaYbHg2
mp-752458,-4.006085755,Dy3Y5O12
mp-698120,-2.454558692,KGd2Cu(MoO4)4
mp-570806,-0.043108259,Mg30Al24Ag19
mp-772535,-3.028539079,LiNb13O33
mp-18043,-3.361309429,Sr6YSc(BO3)6
mp-504769,-0.734034104,N2O5
mp-622619,-2.58575037,UVAgO6
mp-101,0,Ir
mp-31008,-2.267540423,Na14Al4O13
mp-9564,-0.946537649,Ca(MgAs)2
mp-23299,-2.155897182,RbCl
mp-4350,-2.361444685,La2(SeO3)3
mp-15822,-0.702012481,LiSmGe
mp-972635,-0.469061629,SmErHg2
mp-1009491,-0.22063766,RbTe
mp-647604,-2.543720115,PuIO
mp-1002164,0.490539378,GeC
mp-34330,-3.341649109,MgAl2O4
mp-5223,-3.709055059,GdAlO3
mp-542832,-3.665546506,Ba3Lu4O9
mp-1054,-0.307407183,ErTl
mp-1019550,-0.816516156,BeGeN2
mp-559520,-2.064378316,In2Ag3(PO4)3
mp-850994,-2.44753995,LiMn2(BO3)2
mp-780193,-2.615963634,LiCr(PO3)3
mp-540900,-2.22879645,B2PdO4
mp-775864,-1.343262461,NaCo11O17
mp-676329,-1.168865161,Rb5Re3S7
mp-757816,-2.58588843,LiNb(PO3)4
mp-757159,-2.46616674,LiSiBiO4
mp-559176,-3.56422716,La4Ti5(Si2O11)2
mp-540632,-2.504968001,RbTa(GeO3)3
mp-27069,-2.53028617,Li3Bi2(PO4)3
mp-14435,-0.996169167,K3GeSe3
mp-11293,-0.150876069,ZrCdCu2
mp-559628,-3.677025529,NaNp3F13
mp-776806,-2.255034541,Li4V3Fe3(SnO8)2
mp-558347,-2.904900972,K4Ba(SiO3)3
mp-780403,-0.892618724,NaCu3O2
mp-557929,-0.416679194,Tl(Cu3S2)2
mp-862947,-0.860334834,Ba2BiAu
mp-754495,-1.93541718,NbNO
mp-770543,-1.972862176,Mn2O3
mp-27508,-1.071912346,Li6Br3N
mp-696291,-1.222171482,ZnH4(NO4)2
mp-780936,-2.958085691,Li5V6O5F19
mp-14030,-3.207368397,Na2LiY(Si2O5)3
mp-975468,0.403657905,RbAc3
mp-30611,-1.017473355,ErSnPt2
mp-510086,-0.78345742,Ca2InN
mp-11317,-0.013909862,CeFe5
mp-22379,-0.311446993,Y3(Co2Sn)4
mp-11550,-0.981719363,Sc2Pt
mp-10927,-0.759358443,SrC2(SN)2
mp-775867,-2.350599726,LiSbPO5
mp-755018,-2.994881739,RbTaO3
mp-972058,-3.039569577,YbTmO3
mp-782821,-2.734477938,LiV2(OF)3
mp-12024,-0.922282081,RbVSe2
mp-865771,-0.771650791,YbInPd2
mp-771854,-1.939342303,Li4Cr5Co3O16
mp-776220,-2.474534265,Hf2N2O
mp-28189,-0.990319737,FeSeCl7
mp-3615,-3.183248525,Nd(BO2)3
mp-3735,-3.451648562,GdPO4
mp-862775,-0.305339603,LiInRh2
mp-557057,-2.917357016,NbO2
mp-863703,-0.437349793,Pm2MgSn
mp-625318,-2.106918821,Al(HO)3
mp-973339,0.040630813,Lu3Th
mp-781789,-2.670225562,Li4NbIn3(PO4)6
mp-560262,-0.942821664,Zn(InS2)2
mp-555104,-3.196085054,Na2Er2B2O7
mp-862747,-0.751017807,Sr2PtAu
mp-761151,-3.645227561,Zr6O11
mp-608555,-1.908479395,Cs2SnCl6
mp-541180,-0.389689244,Te3Pt2
mp-557871,-1.522896623,CuAsPbO4
mp-2866,-0.519077224,Yb(FeSi)2
mp-776150,-2.132099686,ScAgO3
mp-8830,-1.478347821,NaRhO2
mp-758720,-2.787218876,Li5CuF6
mp-1009596,1.323944639,PdN
mp-23133,-1.703068196,Sr2Cu3(BrO2)2
mp-560235,-3.209224109,K9Sm3Si12(O16F)2
mp-971683,0.111431921,C3N4
mp-17501,-1.401846204,Ba(ScTe2)2
mp-760415,-1.17790732,Li3SbS4
mp-29219,-0.290965764,Ba2(Ni3B2)3
mp-22696,-0.385444408,NdInCu
mp-28835,-1.121873027,LiScI3
mp-21078,-0.09269691,Fe3Ge
mp-20193,-0.494235399,DyCo3B2
mp-29519,-0.553428388,KAuI4
mp-30320,-3.911172374,RbHfF5
mp-12640,-3.47289877,Ba2DyNbO6
mp-779980,-2.54525642,Hf2N2O
mp-624486,-2.139105463,K2Sn(GeO3)3
mp-21129,-1.956005439,Sr2Cu2O5
mp-505686,-0.692660695,GdH3
mp-867677,-1.531811816,LiAgF6
mp-754478,-3.900629277,HfZrO4
mp-32880,-0.248573835,CuBr
mp-2058,-0.262284325,Ni3B
mp-962069,-0.425011099,LiAgTe
mp-631569,0.555682586,BaHf2As
mp-634062,-1.113429236,RbCdH2I3O
mp-774412,-2.56004247,LiCr(PO3)3
mp-763358,-2.548615044,Fe4OF7
mp-29986,-0.807570786,La2Al2I
mp-4404,-0.685799626,Sr(AsRu)2
mp-755346,-2.367799919,Li5BO4
mp-753385,-1.808331775,LiAg2F4
mp-27820,-0.138981607,B7H10
mp-2568,-0.530313253,YSi2
mp-570097,-0.832577919,Sr(Li2P)2
mp-546757,-2.432290436,Sn3PO4F3
mp-3324,-2.762758215,Nb2SnO6
mp-862485,-0.379149908,GaCuRh2
mp-672368,-1.503289803,UVN2
mp-1009813,0.1648448,SiSn
mp-777807,-3.139957176,Li2VF5
mp-6254,-3.465315315,Ba2TbNbO6
mp-753268,-2.852598594,Li6CuF8
mp-780861,-1.645486923,Fe4O7F
mp-680722,-1.638106073,As2Pb14Cl4O17
mp-4798,-0.346850279,Sc(AlC)3
mp-18255,-2.938335576,RbSm(PO3)4
mp-755529,-2.120890928,SbPHO5
mp-757916,-1.656632933,Bi12AsO20
mp-850358,-1.753589487,LiCuSbO4
mp-25053,-2.203837047,Sr2NiMoO6
mp-676636,-3.866288276,Ce9SmO20
mp-567981,-0.10318461,CrGaCo2
mp-976783,-0.476598633,Ge3F
mp-774402,-2.404224902,VCr3(PO4)6
mp-569446,0.078966415,NiPb
mp-5819,-0.683519437,Pr(NiGe)2
mp-31874,-2.401703514,Fe(PO3)4
mp-685415,-1.704761627,Na3SmBr6
mp-761527,-2.63776071,LiMnPO4
mp-559937,-2.069946503,UTe3Pb2O11
mp-568656,-0.204898949,SiC
mp-27212,-2.409222071,Sb2IF15
mp-2,0,Pd
mp-850880,-2.024539066,Fe4O5F3
mp-21757,-3.365794107,Eu3Al5O12
mp-7973,-2.910660469,RbNdO2
mp-604908,-0.268422612,CoSe
mp-1029,-4.181387697,BaF2
mp-542733,-3.070664476,BaY2CuO5
mp-975045,0.733950572,Rb3Cr
mp-9556,-0.435778132,SrZnSi
mp-775259,-2.995105126,Li2Mn3F8
mp-569030,-1.808169383,BeCl2
mp-471,-0.090444063,CdAs2
mp-571461,-0.456940072,K4ZnAs2
mp-975216,-1.996231851,RbReO3
mp-973022,-0.051295956,ScRu3
mp-7937,-1.536169334,NaNbS2
mp-1001,-0.764811323,BaN2
mp-971634,-1.181721561,NaNiO2
mp-31312,-0.343178225,Ga9Rh2
mp-756876,-2.60687948,K3BaPCO7
mp-759424,-2.594088884,Li7Bi2P7O24
mp-581775,-0.185721598,Cs5(KPb6)3
mp-697120,-2.068431007,BH3NF4
mp-976593,-0.244583126,Nd3Si
mp-776615,-2.427395089,Li4VCr3O8
mp-867835,-0.559229659,BeSiRu2
mp-631304,1.271529961,KNb2Se
mp-4658,-3.211985511,La(BO2)3
mp-2725,-0.80274443,TbIr2
mp-863374,-1.633272947,BiTeO4
mp-601344,-2.311441642,LiZr3H18N4F19
mp-27124,-0.627049075,Cu4(BiS2)5
mp-775288,-1.894746293,Cr3Fe2Sb3O16
mp-756951,-2.099312772,LiSbO3
mp-631484,0.813045028,TaTiAl
mp-771838,-3.612591237,La4Al6O15
mp-34465,-0.56222396,Li2HN
mp-28733,-0.405346447,Sc3C4
mp-865013,-0.480149572,EuAgAu2
mp-567214,-0.857153108,NdSnRh
mp-28339,-1.141192763,CaPPt
mp-554821,-1.509513064,Tb(IO3)3
mp-769118,-3.10102684,HoSO
mp-774411,-2.057425506,Li2VO2
mp-752433,-3.588339243,LiLa3Ti4O12
mp-753349,-3.07338413,LiTiSiO4
mp-972966,-0.585441419,Sc2OsAu
mp-3880,-0.479282738,Cr2CuSe4
mp-557969,-3.135575022,LiLa2S2O8F3
mp-22914,-0.669090787,CuCl
mp-569684,-1.476353769,Zr(TeCl6)2
mp-753663,-1.995870721,BaYBr5
mp-720397,-0.739593641,H18RuN5(ClO)2
mp-2696,-0.246433388,MgAg
mp-761132,-2.290108568,Ta5Pb11O26
mp-569153,-0.567797813,PrCoSb3
mp-995206,-0.584928993,H2CO
mp-640391,-0.502598084,Tm5NiPb3
mp-631331,0.646559472,Si2HgTe
mp-779064,-2.848979681,Li4FeOF5
mp-999502,-0.317417585,MoPt
mp-615,-0.10832569,YMg
mp-20849,-0.303514098,Pd3Pb
mp-1019565,-2.67595958,Ca3Ga2(GeO4)3
mp-979935,0.214464927,RbYb3
mp-31572,-2.272614417,Co(PO3)4
mp-570683,-0.362842328,PrInAg2
mp-31746,-2.633275121,Li3Cr(PO4)2
mp-19381,-3.230125845,DyCrO3
mp-17143,-3.622186,BaGd2O4
mp-706617,-2.963523653,Na2AlSi3HO9
mp-778251,-2.378931903,Li4TiCo2Ni3(PO4)6
mp-2068,-1.85736112,RhF3
mp-570248,-0.343767946,NaC2N3
mp-865665,-0.269425501,TiReTc2
mp-22229,-0.273176114,TbInCu4
mp-14790,-0.031236304,Ge(Te2As)2
mp-769148,-0.989858648,Sc(ClO4)3
mp-9837,-2.826186729,Ba4Nd4Zn3PtO15
mp-3721,-3.829197404,SrHfO3
mp-771194,-2.448510477,Nb2Ge2O7
mp-23171,-0.949508525,PrBi
mp-763244,-2.101719057,ZnFeH4O2F5
mp-695772,-2.499179248,Mo(PO3)4
mp-753524,-2.046853211,La2(BiO2)7
mp-5752,-1.083698912,Tb(SiIr)2
mp-559752,-2.524884174,CsZnPO4
mp-21504,-0.734679036,V4GaSe8
mp-24510,-1.507462479,BaH2I2O7
mp-567314,-0.48605605,ErNi
mp-779664,-1.356833685,AgGeO3
mp-865989,-0.877932602,Al2IrRu
mp-3789,-2.461954908,Zn2SiO4
mp-6309,-1.545672104,La3Cu4(P2O)2
mp-643158,-0.607473232,PH8IN4
mp-15483,-1.785181845,Zn3(AsO4)2
mp-545481,-2.120169631,Ca2Cu(BrO)2
mp-754239,-3.062045793,ScGaO3
mp-764417,-1.545632524,Fe14O15
mp-950,-0.052276675,NaZn13
mp-769075,-1.033337645,Li2CuH14C4(N3O4)2
mp-8787,-1.240797676,Ho2NiAs2
mp-861940,-0.564345865,Ca2CdSn
mp-43,0.093748808,U
mp-644292,-0.504547594,Eu2MgH6
mp-530245,-3.76018771,Tm2TiO5
mp-7599,-3.113285339,BeO
mp-974364,0.393286495,RuAu3
mp-704836,-2.425929035,CaTiSiO5
mp-11798,-0.08238361,Fe3Pt
mp-571624,-0.318850147,Dy3Al2
mp-705008,-2.490156329,V4P9O32
mp-560656,-2.429870801,CaTeO3
mp-3055,-0.66470273,NdB2Rh3
mp-10264,-0.191777688,NiTe
mp-558569,-3.216169249,SiO2
mp-865843,-0.333764124,YbNdZn2
mp-23709,-0.128794729,Mg(AlH4)2
mp-19340,-2.488644222,LiVO2
mp-975274,-0.516120264,RbNaO3
mp-10097,-0.824258865,Na3Sr3GaAs4
mp-21835,-0.360016498,Cs2In2Sb3
mp-17927,-1.541685219,Ba(DyTe2)2
mp-568903,-0.689873917,TlV5Se8
mp-29733,-0.194903322,MgNiBi
mp-28344,-0.998180192,Zr6CI14
mp-757777,-2.144455578,LiSiBi3O7
mp-976903,0.251424601,NaNd3
mp-1018791,-0.802131064,LiY(CuP)2
mp-850975,-1.800745041,Na4Ni2C4SO16
mp-11160,-0.877314609,SmSbIr
mp-555641,-1.383511892,Nb2Te4Cl10O
mp-972095,0.110696966,Zn3Hg
mp-555527,-1.851927163,Sm3Si2S8Br
mp-39536,-2.211325932,CaC2S2(OF)6
mp-20245,-0.608156338,CeFeSi
mp-23446,-1.882868172,GeBi2O5
mp-696195,-3.0151293,YSeF
mp-753656,-2.123540412,SbOF
mp-619092,-1.96463868,K2Fe2As2O9
mp-4888,-2.923515115,NbPO5
mp-771093,-2.230981569,Li3Cr10Fe5O24
mp-554716,-2.335578144,NaSbCO2F3
mp-505344,-0.357758367,U3Co7B2
mp-971804,-0.111993246,ZnNi3
mp-27411,-0.024819757,TlP5
mp-28442,-0.544990026,TlAs5S8
mp-30141,-0.986434094,Be(N3O7)2
mp-560997,-3.238802487,KVF4
mp-1315,-1.760041467,MgS
mp-771936,-1.565889152,Sr3YI9
mp-36821,-1.432476841,Nd2CdSe4
mp-631340,0.605708616,SrLaZr2
mp-552588,-2.884630586,LiNbO3
mp-557406,-2.802826636,NaB3O5
mp-760046,-0.650361805,LiPH21S3N7
mp-766423,-1.308292305,Li8BiS6
mp-29958,-1.418564235,Hg7(PO5)2
mp-669645,-0.410054987,Nd5In11Ni6
mp-13406,-0.513348471,LaAgPb
mp-686697,-3.479521795,Na3Sr4Nd3Ti10O30
mp-631565,0.679581575,GaAs2W
mp-972217,-0.308645446,Ti2CuTc
mp-756818,-2.494942602,LiSiBiO4
mp-756597,-3.159261245,Li2HfO3
mp-19052,-2.279462722,K3VO4
mp-30125,-1.152905962,PrTe2Se
mp-13466,-0.600487002,Sm(SiAu)2
mp-9976,-0.338495095,Ba(Sb3Ru)4
mp-978102,-0.725904785,Pr2Co12P7
mp-714931,-2.009641816,VO2
mp-20250,-0.687126701,PdS
mp-8607,-0.092799933,Na(Cu2Sb)2
mp-774874,-2.666234045,Li3Ti2CuO6
mp-772840,-3.033952074,Sm2Ge2O7
mp-771150,-1.936475691,Na6Cu2P(CO4)4
mp-1860,-0.742892594,LaSi
mp-1857,-0.412219437,YbCd
mp-21003,-0.419426155,Y2ReC2
mp-26341,-2.518155592,LiSbP2O7
mp-579812,-0.597350342,CeNiSb3
mp-557112,-2.68360946,Li4Ga3Si3IO12
mp-29227,-1.28145077,TlV5S8
mp-752910,-1.698756984,Na3BiO4
mp-18361,-0.466002005,K7NbAs4
mp-36751,-0.893008145,In5AgS8
mp-675342,-3.100802378,NdPb4F11
mp-973847,-0.453001033,La2ZnGa
mp-18127,-0.318017114,Sr(Ni2Sn)2
mp-753211,-0.549871215,FeCuS2
mp-864600,-0.781458896,TbSnRh2
mp-9092,-2.459193861,Er2S3
mp-973974,1.170647514,K3Mo
mp-976765,-0.171788161,Na3Au
mp-27540,-2.110792919,Al(HO)3
mp-766292,-3.995640816,DyY7O12
mp-9953,-1.298457841,HfP
mp-673761,-2.778932537,Gd5(RuO7)2
mp-20862,-0.291240827,CoSe2
mp-778375,-2.883280868,La2Nb2N2O5
mp-22563,-2.46852445,Gd(LuS2)3
mp-1652,-0.567316893,ZnPd
mp-556544,-3.207302816,LiAlSiO4
mp-13413,-0.232442887,ThCu5Sn
mp-756750,-3.816927973,Dy2TiO5
mp-18910,-2.643172972,BaV4O9
mp-771981,-2.043738925,BaLa2Br8
mp-684904,-1.219672687,K2O
mp-764734,-2.426552914,Mn3VSb2(PO4)6
mp-505346,-3.199902846,Eu3(BO3)2
mp-21296,-0.135138577,PtPb4
mp-754759,-3.939776185,Y2O3
mp-29543,-1.674765586,P2SeO3
mp-1138,-3.180880198,LiF