id,formation_energy_per_atom,pretty_formula
mp-20244,-1.523640959,ZrPbS3
mp-7588,-1.87019296,CdGeO3
mp-626726,-1.857000914,BaH4O3
mp-1600,-0.160253635,BaHg11
mp-559336,-2.252810606,NaNb3(TeO4)4
mp-759455,-2.480899456,LiSbP2O7
mp-19957,-3.025737323,LaGeBO5
mp-30581,-0.161579953,Hf2Cu
mp-87,0,Be
mp-27528,-0.364704452,Cd4As2I3
mp-25208,-1.056597543,BiO2
mp-754480,-3.223505791,GdYO2
mp-23098,-1.95081821,ReNClF5
mp-569675,-1.087300984,Tl2Hg2PdCl8
mp-862918,-0.089236593,PmHoMg2
mp-4579,-0.806795328,LaSiRu
mp-2493,-1.686656556,CeN
mp-849229,-1.223761976,H5NO5
mp-849485,-2.575612939,Mn12O7F17
mp-22131,-0.506330155,SmGa4Co
mp-632760,-1.451763982,Na2H6PtO6
mp-29411,-1.063080377,Na2B2S5
mp-754578,-3.179351027,TmGaO3
mp-945,-0.097134958,NiPt
mp-23140,-0.378942186,AgHgSI
mp-2451,-0.434850708,YAl3
mp-720817,-1.561242818,MgAsH15O11
mp-8075,-2.731399008,NaBe4SbO7
mp-862887,-0.333679019,LiSc2Os
mp-972400,-0.741182771,TmBiPd2
mp-761952,-2.60734763,Li5Sb(P2O7)2
mp-21677,-0.254141718,Ca3(InNi2)4
mp-775175,-2.260703396,LiVFeO4
mp-781614,-2.757704679,V6O7F5
mp-768615,-2.82904649,Sr3La2Cl12
mp-1172,-0.47224868,MgRh
mp-10098,-0.837430892,YGeAu
mp-569193,-0.690343917,Cs4P2Se9
mp-626528,-2.508622582,NbHO3
mp-28707,-3.17185785,PrNb5O14
mp-8418,-1.150907342,ZrCoP
mp-649950,-0.932725939,RuC3Br2O3
mp-30386,-0.724292565,HoAu3
mp-555791,-3.249599565,SiO2
mp-23201,-0.456103759,BaBi3
mp-560629,-2.960736346,K3Al2(PO4)3
mp-867750,-3.097952546,Ti3PO7
mp-768482,-1.992223589,Bi2(SO4)3
mp-755462,-3.562669662,PrHfO3
mp-770638,-1.686824009,Li2CoH12(SO7)2
mp-14430,-2.867183079,Sr2YRuO6
mp-11571,-0.417000461,YSn3
mp-758573,-1.203419708,H16Ru3C6(Cl3O7)2
mp-510188,-0.507088944,HfGa
mp-974430,-0.075995206,Re3Ir
mp-972380,-0.591229723,Tb3ReB7
mp-22566,-0.84626682,TlInS2
mp-571309,-1.15171966,Nd12C6I17
mp-505515,-0.437846603,Sr(CuSb)2
mp-781684,-1.550592793,LiNiH12(SO7)2
mp-601820,-0.045044553,Fe3Co
mp-654139,-3.680555288,Nd2Ti4O11
mp-21290,-0.999920654,HoInPt
mp-1008912,2.256265692,AgC
mp-865081,-1.25314492,NaAcTe2
mp-30471,-0.14808792,CaCu
mp-22634,-3.278983585,K4SrU3O12
mp-4675,-3.082068796,NaTaO3
mp-625151,-1.324217299,H7ClO3
mp-973831,-0.707861289,LiHoPd2
mp-20764,-1.739749912,YbCeSe3
mp-679979,-0.792428323,La9B3C6I5
mp-764052,-2.806561209,VOF
mp-1018159,-0.188354632,ErSb2
mp-624668,-0.713963003,BaSb2
mp-703459,-1.392243624,H2O
mp-1689,-0.400018782,HfRe2
mp-775016,-2.508779409,MnCr(PO4)2
mp-559598,-3.906489123,LiScF4
mp-559613,-1.746239756,K6Se2O9
mp-560578,-2.016217124,RbTeNO3F4
mp-17448,-2.393208645,Ba3CaIr2O9
mp-2393,-0.228789043,YTl3
mp-849476,-2.271012884,Li17Ag12F29
mp-8995,-3.264735532,Cs2NbF6
mp-560944,-2.802195639,Cs4Ba(PO3)6
mp-28326,-1.102999985,LiGaBr4
mp-978506,-2.858161565,SmSiO3
mp-773325,-2.417135975,Li2V3O8
mp-1013541,-0.446322797,Sr3SbAs
mp-22857,-1.326634401,CrCl2
mp-1009734,0.316715649,RhN
mp-554229,-1.793708518,CsAs3O8
mp-554539,-3.22287733,Ca6Si3H2O13
mp-10335,-2.172288824,Ba2CuTeO6
mp-9029,-1.22604072,Ca3VN3
mp-15954,-0.51293282,As2Rh
mp-573877,-0.337507159,Tm3(CuSn)4
mp-973451,-2.856253894,Nd2BiO2
mp-761185,-2.201253167,KPH3O4F
mp-867831,-0.719424078,DyMgRh2
mp-567908,-0.525963276,Lu4B3C4
mp-558430,-3.563308472,BaB2F8
mp-20462,-0.348435129,U3Co4Ge7
mp-644325,-2.594122625,CsFeSiO4
mp-865100,-0.175728959,NaInHg2
mp-28975,-0.186078855,Bi2(PSe3)3
mp-545467,-1.592844587,Li3(CuO2)2
mp-672205,0.965552396,Ce(C2N3)3
mp-1002114,-0.232386409,VH
mp-19255,-2.450905159,TiFe2O5
mp-980205,-0.57051328,YB4Os
mp-541735,-1.440292773,K4Ti3S14
mp-30941,-1.528437746,Cd2(TeO3)3
mp-29055,-0.295614901,KSb2
mp-505721,-1.495462256,Rb3VS4
mp-567210,-0.708374066,TbInAu2
mp-866222,-0.340772093,AcSi3
mp-10670,-0.522876515,Ca3(AlGe)2
mp-28778,-3.934122748,KScF4
mp-672695,-1.604887478,KAgCO3
mp-16403,-0.009294801,SnHgP14
mp-754414,-3.632723664,SrSm2O4
mp-28219,-0.887561264,TlCdBr3
mp-27615,-2.848737958,U(PO3)4
mp-17185,-0.813547966,Ca4Si3Pd4
mp-19740,-0.99936192,YInPt
mp-2688,-0.516635849,HoGa3
mp-7657,-0.817789262,K3SiTe3
mp-631355,0.308047353,SrCrRh2
mp-676467,-3.087694455,Na3Al2P2O8F3
mp-23407,-0.824478434,Hg(IO3)2
mp-17468,-3.526540844,SrZrSi2O7
mp-21394,-3.140329509,EuO
mp-761704,-1.922194983,Bi4O5F2
mp-554493,-1.744238279,BiAsPbO5
mp-625074,-1.189660271,Ni(HO)2
mp-555476,-1.803257972,Na3OsO5
mp-558647,-1.029715466,Cu9Se4(Cl3O7)2
mp-558487,-2.836697161,GdP5O14
mp-13499,-0.059690853,HoMg2
mp-560049,-1.102491259,CuSeO3
mp-757092,-3.394392587,NdAl11O18
mp-9801,-0.819300452,HfCoAs
mp-645299,-1.24951323,Cs2Mo2O11
mp-607467,-2.702363796,CaMoO3
mp-1013708,0.508457192,Ba3SbN
mp-684090,-2.491206683,LiSbP2O7
mp-23220,-2.872394838,YbCl2
mp-770626,-2.018863961,Li6Ni2P(CO4)4
mp-972257,0.030299134,LaTb3
mp-22580,-0.529254198,ZrGaNi2
mp-555521,-3.279479277,SiO2
mp-767777,-3.009443985,Li2V(Si2O5)3
mp-28903,-2.063824481,Zr6FeCl14
mp-753699,-1.88892893,Bi4O5F2
mp-976031,0.196776234,NaAc
mp-569927,-0.264061395,ErZn5
mp-1027,-0.759802413,HfRh3
mp-706986,-1.595664524,PH4NO3
mp-764754,-2.696036466,LiV3O5F3
mp-776672,-2.56799234,Li2NbV3O8
mp-555621,-2.952323597,RbAl3(P3O10)2
mp-24004,-2.147298686,Zn2PHO5
mp-555147,-3.19886829,SiO2
mp-769802,-3.738669637,Ba2Zr7O16
mp-755252,-2.968915455,DyHO2
mp-569823,-0.375620279,YInAg2
mp-980662,-0.396851478,YTmAl2
mp-769720,-3.70680077,La2Ti3O9
mp-705555,-1.71032891,Fe10O11
mp-17332,-0.52098014,Sc5Ga3
mp-770785,-2.237718179,Na6Mn2B4AsO16
mp-30973,-0.2265442,Ni3(BiSe)2
mp-1018745,-1.148112063,LaSbPd
mp-779900,-1.398123384,Li4Co2Ni3O10
mp-9746,-2.387058481,Ba3NaIrO6
mp-7074,-3.338241621,NaSc(SiO3)2
mp-25950,-2.366597321,SbP2O7
mp-542598,-0.196792469,Li22Si5
mp-18899,-2.738333223,Nd2MnNiO6
mp-774242,-2.638940188,LiTaWO6
mp-23110,-0.945663676,NaHg2IO2
mp-6071,-2.527769163,Sr3LiIrO6
mp-11247,-0.406111822,Li3Au
mp-28641,-3.435257257,ThB2O5
mp-556932,-2.265799223,TlPO3
mp-30684,-0.544106525,Zr3Ga2
mp-1013705,-0.31080276,Sr3BiAs
mp-23399,-1.093678772,Rb2AgI3
mp-672654,-0.466482074,Zr6Co16Ge7
mp-13995,-1.292655602,Hg2GeO4
mp-9259,-3.146481848,Ba2Mg(BO3)2
mp-1019572,-3.431520438,CaAl2SiO6
mp-707177,-1.462298774,HC5N3(OF4)2
mp-631256,0.564132333,FeNiMo
mp-13829,-0.435803042,TlCu3S2
mp-977563,-0.473912043,LiNbIr2
mp-9937,-0.795619655,USbSe
mp-37995,-2.90896254,Ti3Zn2O8
mp-1314,-0.243081232,Li12Si7
mp-767412,-0.968919097,Li3(CoS2)4
mp-2235,-0.602714822,YbRh2
mp-6586,-3.466144995,K2NaAlF6
mp-779974,-2.550314945,Hf2N2O
mp-18620,-2.872283916,Mg(PO3)2
mp-754745,-2.083735781,Na2SnO3
mp-19026,-1.595733519,Na4FeO3
mp-761254,-2.521727652,Li5CuP3O11
mp-676264,-4.266569138,YTh9O20
mp-559360,-3.279925443,SiO2
mp-10849,-0.359818125,AsPdSe
mp-631309,0.689889071,LiHg2Os
mp-1020159,-2.111176045,Na2Si(S2O7)3
mp-19267,-2.484657419,BaMnO3
mp-19147,-1.55068252,NiCO3
mp-1019743,-0.644238746,Ga3BN4
mp-605028,-0.383774022,Te2Pd3Pb2
mp-773113,-0.887221636,H12RuSN4(ClO)2
mp-867966,-3.290144879,Eu2SiO5
mp-760093,-3.401924447,LiTi8O16
mp-984534,-0.553233121,Dy2OsPd
mp-643643,-1.40168308,BaH2CSNClO
mp-972549,0.006845439,SmLu3
mp-675473,-0.551506795,Li7MnAs4
mp-637918,-0.339726165,Cr3GeN
mp-30374,-0.705543891,DyInAu2
mp-862687,-0.731758398,CuH6(NCl)2
mp-1008807,-0.188317786,RbCuO
mp-772188,-3.969753103,DyErO3
mp-10533,-1.70782927,YCuS2
mp-778217,-1.203390944,Fe2Co3O10
mp-1006372,-1.493812214,AgSO4
mp-865934,-4.489659124,YbF2
mp-704544,-2.936144378,ThV2O7
mp-11204,-0.554901821,Tm6FeSb2
mp-8716,-0.940860247,K2MnSe2
mp-35929,-2.099122518,LiMnO2
mp-567982,-0.018189073,TaSn2
mp-19855,-0.109999862,Cr7C3
mp-1016929,-1.250774427,MgRhO3
mp-755355,-3.356372721,La2Pr2O7
mp-775817,-1.270440812,Li5SbS4
mp-555015,-1.348759887,SiAg6SO8
mp-644494,-0.348199898,Rb2H4Pd
mp-29405,-0.92075069,RbSnI3
mp-777071,-2.528314451,Li3Sb(PO4)2
mp-6289,-2.913926442,Ba2Ti(GeO4)2
mp-6514,-3.392917791,NaLaTiO4
mp-11520,-0.9003981,YNiSb
mp-772662,-1.718717553,MnH4(SO5)2
mp-752843,-2.536841051,Li2CuF4
mp-581419,-1.283559718,K3Nb2Cu3S8
mp-1009086,-0.22231298,BeSnP2
mp-559814,-1.249078032,Li5SbS3I2
mp-631631,-2.034638779,Mn5V2Pb3O16
mp-559871,-3.889179583,AlF3
mp-5732,-3.696785023,La2Si2O7
mp-557757,-3.127027373,AlPO4
mp-11280,-0.071319744,TiBe12
mp-9657,-2.007905003,LiAsO3
mp-554964,-3.581457094,Pr7BP2O17
mp-17487,-2.906148573,NaErGeO4
mp-3187,-3.608982948,BaCeO3
mp-579556,-1.09314999,CsHoZnTe3
mp-1018768,-0.732419663,Li3LaBi2
mp-24390,-2.841658991,CaPHO4
mp-8960,-2.988465061,Ba3NaNbO6
mp-1352,-1.870238526,ZrN
mp-15733,-3.507024002,CaTaAlO5
mp-646456,-0.255471308,Tm2In8Co
mp-505270,-2.648021161,TiSO5
mp-685935,-1.784886923,CdGeO3
mp-976356,0.040714609,NdSc3
mp-11585,-3.280394621,La2MgGeO6
mp-557257,-3.052475713,KVF3
mp-773506,-2.315122337,Mn5Cu(PO4)6
mp-31194,-0.281518285,Li13(Ga7Cu2)3
mp-18305,-0.809910934,Rb3AsSe4
mp-18576,-3.052393806,Tm2Cu(B2O5)2
mp-735543,-1.565160463,MnH6SO6
mp-542020,-0.88576536,Sc3B2Rh5
mp-979984,-0.172739687,YbP3
mp-680322,-1.960587686,Bi17P5Pb5O43
mp-1819,-1.857190682,SbO2
mp-569507,-1.388336072,TbTlSe2
mp-770899,-2.373399845,Li2V3O8
mp-255,-0.237822976,NaHg
mp-22889,-1.537535961,ZnCl2
mp-586092,-1.939511416,Li3Fe5O8
mp-745173,-1.638625353,Na3Cd4P6H10(ClO8)3
mp-961668,-0.14357114,AlVPt
mp-17785,-1.944263104,KNa2GaO3
mp-554115,-1.140058305,ZnS
mp-20646,-0.474053718,Sm(MnGe)2
mp-14581,-2.153193492,CsCu2F6
mp-690559,-3.304198535,NaLa2Ti2MnO9
mp-14686,-0.64021569,Y5(Si7Os2)2
mp-4941,-2.804808252,Sr2SnO4
mp-4406,-2.801961097,CaSO4
mp-625632,-1.231911545,H9BrO4
mp-569707,-0.549350592,BiSeBr
mp-6325,-3.435824219,Ba3MgTa2O9
mp-569834,-0.188882264,LiCu2Sn
mp-626800,-1.702621145,ReH3O5
mp-34913,-2.382363823,Nd5ErS8
mp-975924,-0.466263175,Ge3Ir2Se3
mp-775013,-2.084683044,Li4Mn3Fe3(SbO8)2
mp-989635,-0.80367523,CaMoN3
mp-755867,-2.807751198,Lu2Sb2O7
mp-10677,-0.882671172,CaPAu
mp-975321,0.172618318,LiSi3
mp-754555,-2.746234771,HoTlO2
mp-15796,-1.696955848,LiHoSe2
mp-954,-0.409580459,BaB6
mp-27263,-1.351553689,Rb2MnBr4
mp-21308,-0.818447094,TbInPd
mp-767070,-3.648701014,LiLa5Ti8O24
mp-998746,-0.713038603,TlGeBr3
mp-774802,-2.495781668,NbCu(PO4)2
mp-1523,-0.962951432,ZrP2
mp-757076,-2.547772214,SnP2O7
mp-11566,-0.375010555,ScZn
mp-24650,-0.797454522,YH2
mp-117,0,Sn
mp-961656,-0.08069817,VFeTe
mp-773604,-2.223822504,Na3Co(BO3)2
mp-1444,-0.340330665,CaCd2
mp-780850,-2.485475556,Li3Mn4(BO3)4
mp-755486,-2.066126566,Na2SnO3
mp-767527,-0.698491414,Li6Sb3S
mp-554701,-2.701734821,SbP(OF3)2
mp-643001,-0.336637645,Na4H6Ru
mp-557644,-2.007147406,Ag2P2PbO7
mp-961696,-0.063278202,MnCoSi
mp-560597,-2.773726295,Na8Si6SnO18
mp-11474,-0.02610375,TlHg3
mp-641281,-2.32692916,Na4Pu(MoO4)4
mp-9769,-0.85179848,BaAs2Pt
mp-867117,-0.800549455,Sc2CuPt
mp-555840,-2.344602199,K2PO4
mp-1007661,-0.102038967,InSb
mp-782649,-2.026680144,Na4Mn2P(CO4)4
mp-636476,-1.485645726,SrCu3(RuO3)4
mp-31235,-0.754141922,BaNaBi
mp-977110,-0.406096065,NaSnPd2
mp-380,-0.706591947,ZnSe
mp-38972,-2.707694607,Ba3Re2O9
mp-611,-0.02603218,Ag3Sn
mp-12431,-3.950420292,BaBeF4
mp-754699,-2.768019078,NaTi2O3
mp-864671,-1.026085845,HfAlRh2
mp-780470,-2.45394085,Li8Mn3Fe5(BO3)8
mp-9201,-0.345879463,K4Ge2Au7
mp-1008813,-0.460264829,RbAgO
mp-705380,-2.453741172,LiMo2P3O13
mp-553874,-1.348492785,Ba2LaAg5S6
mp-561110,-1.989739524,SiPb4(ClO)4
mp-8673,-2.023201035,Li2SnTeO6
mp-567114,-0.59638097,Sr(BiPd)2
mp-961726,0.007394035,NbGeRh
mp-11917,-1.204849389,Mg(BeN)2
mp-755169,-0.149769289,Tl6S
mp-2358,-0.511883046,SmAl2
mp-752434,-3.915910692,Gd3YO6
mp-974315,0.867844103,RuI
mp-998323,-1.213053426,CsInBr3
mp-755317,-3.02070463,Y2TeO6
mp-767414,-2.81196515,K2HoPCO7
mp-3076,-1.06145006,LaSnPt
mp-777744,-4.308428654,Ba2YF7
mp-15736,-3.441160996,Sr3AlO4F
mp-567556,-0.496451587,CdSb2Se3Br2
mp-556050,-1.528482028,P4S(NF)6
mp-31025,-2.306437903,Sc5NCl8
mp-554532,-2.644889907,K2TeClF5
mp-557604,-3.132847994,AlPO4
mp-23224,-0.190688013,BiTe
mp-571056,-0.304434331,CsSn
mp-707129,-2.201544617,Ca3B6(H4O5)4
mp-973540,-0.494921141,LuAlB4
mp-23330,-1.143054303,NaClO3
mp-760419,-2.943694024,Li2BiF5
mp-15046,-0.135440595,Sb2(PSe3)3
mp-19860,-0.570820899,CeTiGe
mp-707645,-2.706152314,Na2Ca3B5H2S2ClO18
mp-16493,-0.539941653,YAl2Co
mp-867749,-2.26241595,CaBiO3
mp-775227,-1.867055402,Li4Fe5(CoO6)2
mp-849678,-2.625312833,Li2Fe4OF8
mp-772724,-2.29328171,SnBO3
mp-985558,-2.233372611,Ce2US5
mp-30523,-0.32604151,Ta3As
mp-974358,-0.02854003,Ir3Ru
mp-676762,-2.44493408,Yb(CeS2)2
mp-770936,-3.517999442,Ba2Sc2O5
mp-18420,-2.117823506,Er3CrS6
mp-19027,-1.320906626,Na5CoSO2
mp-4756,-0.059983777,ZnSnSb2
mp-1545,-0.251533995,Nb3Rh
mp-755057,-2.185808566,Rb2PrO3
mp-20389,-0.148135916,Na2CdPb
mp-40502,-3.14709157,CsTiCoOF5
mp-618788,-0.223443911,Ba(Cu5P2)2
mp-570175,-0.543847749,Ce5Si3
mp-977394,-0.333533088,TbAlAg2
mp-4752,-3.530289287,Na5Al3F14
mp-25802,-2.439965764,Li2Bi(PO4)2
mp-698728,-1.67301714,Ba2CaY(Co4O7)2
mp-11859,-0.658102504,La(SiAu)2
mp-1009819,-2.681626209,SrO
mp-4564,-2.82542722,Ba4Nb14O23
mp-28782,-1.204730086,Na3PS4
mp-540577,-3.213569833,KZr2(PO4)3
mp-556117,-2.836284996,Ga3Pb5F19
mp-10124,-0.394929818,Tb(Ni2B)6
mp-567920,-1.148917365,Ti4P3
mp-770816,-3.908541654,Dy2TiO5
mp-866139,-0.559790972,TiBe2Ir
mp-757884,-2.420753205,Li2Sn3(P2O7)2
mp-3700,-4.058965361,LiYF4
mp-698622,-1.308799846,Sr10Mn5Zn9(AsO)10
mp-556740,-2.930926519,NaSiBO4
mp-14892,-0.908229508,Rb9Fe2Se7
mp-9693,-0.892348211,K2SnSe3
mp-7725,-2.979703691,Na2UO4
mp-559740,-3.2470536,SiO2
mp-697761,-2.332136167,MnPO4
mp-10739,-1.020420278,TiPRu
mp-631310,0.521218243,CoReGe2
mp-775191,-2.266524848,Fe3Cu(PO4)4
mp-1152,-0.627250517,TiRh3
mp-15739,-2.152432303,BaZn2(AsO4)2
mp-19320,-1.513615393,K2FeO4
mp-1008673,0.12808099,TmCd2
mp-998552,-3.806728285,BaHfO3
mp-757203,-1.991622645,NaPH4SO8
mp-556262,-3.274360189,SiO2
mp-626000,-1.607045442,NaHO
mp-37521,-1.577763652,Nd2USe4
mp-581488,-2.123658293,SbTe7SXeCl(OF4)9
mp-669466,-0.770237217,AgNO3
mp-753690,-1.809062727,Li4H3BrO3
mp-17396,-0.522222749,SrNi5As3
mp-559897,-1.857253859,OsO2F3
mp-557697,-1.488888902,Hg2Sb2O7
mp-962066,-0.660359692,NaLiTe
mp-22775,-0.316770188,Sr(Sb3Ru)4
mp-777002,-2.453580676,Li4V5Cr3O16
mp-7888,-3.043171527,Sr2HoReO6
mp-631549,1.275744345,HfGeB2
mp-560029,-3.679149836,Y3BrO4
mp-768372,-1.289994515,SbBrO
mp-773040,-0.557884567,As5Pb3S10
mp-28779,-2.824427203,USbO5
mp-779975,-2.544785125,Hf2N2O
mp-21826,-0.342734607,UNi5Ge3
mp-1001918,0.401222086,HfC
mp-20836,-0.832321679,Nd(NiAs)2
mp-9993,-1.331114867,Al2CdS4
mp-9497,-2.364653246,Pr2C(NO)2
mp-775996,-2.377730026,TiFe3Cu2(PO4)6
mp-541312,-0.053398002,Ge3(Te3As)2
mp-2027,-0.396045615,HfCo
mp-1950,-1.827328318,SrS2
mp-560521,-2.80034568,Be(PO3)2
mp-775975,-2.856051359,La2Nb2N2O5
mp-998176,-1.247413216,RbPbBr3
mp-763976,-2.538517365,V4O7F5
mp-23012,-0.552743674,Bi2Pd3S2
mp-30686,-0.61200947,Zr2Ga3
mp-979962,-0.359973169,AcYbCd2
mp-782820,-2.493583922,Li5Mn6(BO3)6
mp-571623,-0.742151293,Al2BiSe4
mp-558501,-1.645590754,KBi6IO9
mp-757781,-2.37604741,LiSi2(BiO3)3
mp-9033,-0.297340344,Np(SiOs)2
mp-757399,-2.956684071,La12Cu6O25
mp-10890,-0.08328306,LiAl3
mp-21911,-0.41478496,PRu2
mp-758418,-1.598582179,Tl16O15F17
mp-996992,-1.099231459,LiAgO2
mp-849524,-2.360011558,LiFe3O3F4
mp-3679,-0.535749251,NiSbS
mp-7347,-0.484848009,La(BRu)4
mp-705061,-2.190430527,UAg2(WO5)2
mp-998231,-1.618648143,KGeCl3
mp-616492,-0.867921873,DyGe2Pt
mp-558191,-3.167208383,Na2ZrSi2O7
mp-11575,-0.37128199,YTl
mp-2392,-1.541714489,Th2Se5
mp-10212,-0.567639358,ScGe2
mp-20025,-1.044753642,Mn(GaS2)2
mp-766973,-1.955212227,Li8Mn(FeO4)3
mp-560637,-0.527922875,GaS5N5Cl4
mp-18071,-1.285736634,Ce3SiAgSe7
mp-34501,-1.608125789,Fe2CoO4
mp-706335,-1.817094115,Mg3P4H28(NO12)2
mp-10534,-2.240196722,Sm10S19
mp-561052,-3.174490293,Ba4Na2CaTi3Si4(SO13)2
mp-772052,-1.315970769,CdSeO4
mp-722890,-0.543098417,Li3H6Ir
mp-675128,-3.7451518,Sc4Ti3O12
mp-22430,-2.094995227,BAsPbO5
mp-675142,-1.066168331,Yb3DySb3
mp-2811,-0.548315871,MoN
mp-1018032,-2.213059188,SrCdO2
mp-14415,-3.245818693,Pr2Be2GeO7
mp-560466,-2.619776085,Na2FeCuF7
mp-763225,-2.629278791,Li2VO2F
mp-696379,-2.353538642,BH3OF4
mp-17701,-1.234199053,Sr2NbN3
mp-29197,-2.035165689,La3Br6N
mp-642834,-1.827012443,BaH5ClO3
mp-673017,-1.775713438,CuPO4
mp-21199,-0.498737439,Na3(GePt)4
mp-973414,-0.671424472,Lu2RuAu
mp-764736,-2.766249949,V4O5F7
mp-553925,-2.843461057,Rb5B19O31
mp-5497,-0.600846853,Er(CoGe)2
mp-530164,-3.385097115,MgAl2O4
mp-24578,-1.525238766,MgH10(SeO5)2
mp-997054,-1.272670413,CuBiO2
mp-778222,-1.92082674,Na3VO3
mp-556904,-2.061410043,KSbN(OF)3
mp-505365,-2.780372401,Mg3Nb6O11
mp-1662,-0.070381067,Te2Au
mp-772187,-2.838093851,AlGaO3
mp-42392,-0.625575545,CoH22N7(ClO2)4
mp-19080,-1.946589866,Na2Mn3O7
mp-14205,-0.311038187,K3Cu3As2
mp-767598,-2.615872879,LiVPO5
mp-567727,-0.56053861,Pr2Co2I
mp-33546,-1.521382365,Fe2CuO4
mp-421,-0.448240088,DyNi2
mp-21449,-0.878733255,NbCoP
mp-21075,-0.942950009,HfC
mp-973286,-0.466401847,LiLu2Pd
mp-675766,-1.333380541,K4CO6
mp-772619,-2.064629465,Li8Te2O9
mp-19518,-3.187700224,BaCr(Si2O5)2
mp-1009005,1.505019709,IrN
mp-1019791,-2.615194946,K2Zn(PO3)4
mp-560920,-3.277756251,SiO2
mp-13436,-0.305636913,PrMgNi4
mp-755515,-3.082924087,Lu2TeO6
mp-286,-2.094524239,YbSe
mp-559893,-1.396924568,LiBi(PdO2)2
mp-23067,-1.536391853,K2PdCl6
mp-15897,-3.372396849,La4Si2S3O7
mp-28962,-2.983863644,Ti4Bi2O11
mp-779089,-1.654528356,CoOF
mp-779209,-2.285744023,Li4Nb3Fe3(TeO8)2
mp-611219,0.08617306,Hg
mp-27145,-0.839837511,Ca5Bi3
mp-20492,-1.11789243,ScSiRh
mp-723378,-2.411930506,KAlH6(OF3)2
mp-22811,-0.43357834,InCuSe2
mp-1156,-0.16256075,GaSb
mp-18747,-2.598396203,SrMoO3
mp-683918,-0.382927789,RbC2N3
mp-998433,-2.028831481,CsSrBr3
mp-16745,-0.357892543,ErAgPb
mp-13140,-0.531531302,BaLiGe2
mp-13535,-0.459266723,Tb2ZnNi2
mp-541111,-1.684964429,AlGaCl4
mp-773011,-3.054147093,Dy2Ge2O7
mp-772550,-1.528529834,CrO3
mp-8516,-1.79213591,CdSO3
mp-761633,-1.873998298,Li3Mn(CoO3)2
mp-21046,-0.417427559,U(GeIr)2
mp-2191,-1.089690753,ErSb
mp-6253,-3.375378817,KLiBeF4
mp-9757,-3.026710159,BaSm2PtO5
mp-7123,-0.363569577,KSb(PSe3)2
mp-2079,-0.41893723,Rb2P3
mp-3603,-1.559681059,Ce3(BN2)2
mp-581875,-2.355841047,Ta3Bi7O18
mp-757560,-2.510644915,Li3Sn2(PO3)7
mp-5401,-3.227700902,Sr2B2O5
mp-1019742,-2.439451465,HeSiO2
mp-679967,-0.648111408,Nb3Se10Br3
mp-28564,-1.54484063,Rb4PbBr6
mp-30718,-0.262654165,K5Hg7
mp-559959,-2.631524342,Rb2CoF4
mp-6959,-0.906229015,Ga2NiS4
mp-982724,-0.302214741,HoTmTl2
mp-41918,-3.044723004,SrLaNbZnO6
mp-24366,-1.746360932,K2ZnH12(SO7)2
mp-1018119,0.457003498,VCoSn
mp-9264,-0.528765905,NaTeAu
mp-14373,-0.580660198,Y3B7W
mp-17268,-3.053901204,Lu2Cu(B2O5)2
mp-505185,-1.444390377,Na2H16O9
mp-556046,-2.788069797,SrGa2B2O7
mp-15950,-0.481093304,Li(SiNi)6
mp-555692,-2.086743433,Rb2CO3
mp-645364,-1.088518047,Sr(PN2)2
mp-510264,-2.682751489,KY(WO4)2
mp-570179,-0.861003117,TbAu2
mp-9575,-0.248758558,LiBeSb
mp-10453,-0.896420786,Lu(SiRu)2
mp-5377,-3.739884631,YTaO4
mp-32580,-0.185044579,Ga2Te3
mp-778408,-1.112319749,HgBiO3
mp-10046,-0.538986461,V2AsC
mp-707941,-2.187416617,Na3H(SO4)2
mp-690536,-2.404533511,Sr4Fe4O11
mp-561586,-2.209855238,CsLaS2
mp-867674,-1.71499979,Ba3CaI8
mp-866033,-0.793414651,AlZnRh2
mp-569425,-0.163107753,Pr23Mg4Ni7
mp-995221,-1.269031893,H2CSO4
mp-862806,-0.498850518,Er4Ga16Co3
mp-568692,-0.765782243,In4Br7
mp-707838,-2.484546182,Ca3Be2P4(HO2)10
mp-1018826,-0.833163077,NdGeAu
mp-775258,-2.439620246,Li4MnFe3(BO3)4
mp-973101,-0.212155686,LaHoRu2
mp-630820,-0.551392236,Yb4Cu2Sn5
mp-973524,-0.721509904,HoVB4
mp-976064,-0.661533591,Ho6CoTe2
mp-976384,-0.599875578,HoB4W
mp-672176,-2.479188571,K3Sc(MoO4)3
mp-27536,-3.046684068,UBrO2
mp-1002069,-1.602584919,NaLiICl
mp-3882,-1.112463148,Sm(SiRh)2
mp-18658,-1.86231561,RbLaSiS4
mp-4934,-3.38748158,Al2SiO5
mp-776651,-1.700679672,Mn3NiO4
mp-13305,-0.856173393,SmSnAu
mp-961651,-0.53798429,ZrFeSe
mp-777901,-3.170822023,Li2VF5
mp-18024,-0.182325658,Hf9BMo4
mp-559732,-2.881842095,K2Nd(PO3)5
mp-9338,-3.384557861,Ba2MgSi2O7
mp-769725,-2.484215216,Li4Ti3Cr3(CoO8)2
mp-254,-4.440404156,NdF3
mp-571156,-0.310792772,Mg(BH4)2
mp-11560,-0.881363833,TiSiRu
mp-768450,-2.701989614,Tm3Sb5O12
mp-768966,-2.327982937,Li5BO4
mp-9144,-2.716098917,LiAsF6
mp-774950,-2.29820454,Li2V3CoO8
mp-981336,1.061643864,Zn3C
mp-23975,-0.438923562,NiH12C2(SN3)2
mp-768988,-1.841578199,Li4Bi2O5
mp-540905,-3.194192705,YAlGeO5
mp-557189,-2.722150717,LiPO3