id,band_gap,pretty_formula
mp-14232,7.2811,LiBO2
mp-778070,0.3258,Li2MnVP2(HO5)2
mp-555212,1.8534,Ba2InBrO3
mp-697285,4.184,SrH10(SO4)2
mp-29447,2.3185,Bi3BrO4
mp-653954,0.8112,Cs2Re2S5
mp-634431,4.9714,KHCO3
mp-18506,6.0508,SmZrF7
mp-641112,3.2953,ReO2F3
mp-23309,3.8701,ScCl3
mp-680555,1.2543,TlGaSe2
mp-19065,3.4077,Ho6WO12
mp-1019708,4.8878,CsBaLiP2O7
mp-778578,2.1387,Li2Co2(SO4)3
mp-654225,2.1843,KFe(SeO3)2
mp-20374,3.988,Ho2C(NO)2
mp-757594,1.9048,Os(OF2)2
mp-766090,4.1893,Hf3Sc4O12
mp-14623,0.2618,K5CuAs2
mp-561374,3.1241,CaTeO3
mp-5663,2.308,BaCeO3
mp-676498,1.2455,Gd2PbS4
mp-632711,1.8375,InHO2
mp-768254,2.2214,Gd3AsO7
mp-761285,0.6102,Sc2V2O7
mp-505663,0.2487,CsTi2Cl7
mp-18453,0.5246,RbAlPdF6
mp-541221,2.3958,BaH2N2O5
mp-568762,1.9326,Na4Ge2Se5
mp-760664,0.867,LiCu(PO3)2
mp-756703,1.5615,CdSeO4
mp-705089,3.3905,LiFe3P3O11
mp-758331,2.2516,NdTa3O9
mp-560222,5.1205,Na3SO4F
mp-770764,3.0389,Li2Fe(BO2)5
mp-12558,0,LiMgAs
mp-754445,2.793,Li2Ti(BO3)2
mp-676991,4.7534,NaAlSi2H2O7
mp-17791,0.8187,Cd4SiSe6
mp-696986,3.4237,CsH2CO3
mp-11051,0.3429,NaSn
mp-534935,3.0028,Sr3Pr10Al12Si18(N2O)18
mp-27899,1.4523,Cd3AsCl3
mp-510342,3.2666,Dy2Te4O11
mp-703376,2.3075,UP3H7O8
mp-762336,3.9234,LiSb(PO3)4
mp-28900,0.7905,Cd2As3Br
mp-29657,0.6652,NaGe
mp-766259,3.2846,SnH10Cl4O5
mp-772823,3.8598,Y2HfO5
mp-690817,2.0871,SrFeMoO5
mp-625821,2.8006,Sr(H2O3)2
mp-9890,1.9175,TaAgO3
mp-705357,1.1988,LiMnP2O7
mp-5279,3.2499,Ca3TeO6
mp-541646,0.4897,Cs3Ru2Cl9
mp-1968,3.8248,La2O3
mp-30950,0.3364,Sr3GeO
mp-764773,0.6454,Li4Cr3Co2Sb3O16
mp-1020117,4.5456,MgSiO3
mp-626727,4.3486,SrH4O3
mp-770431,3.7327,Ho2(SeO4)3
mp-11131,1.5537,K2Hg3(GeS4)2
mp-764044,0.2418,Mn3OF5
mp-754475,1.9564,Tm2SeO2
mp-1047,0.773,Ca3N2
mp-697888,2.8711,Na2CdH4(SeO5)2
mp-975605,0.6211,Pr6IrCl11
mp-850921,0.2431,LiMn2(BO3)2
mp-755745,0.9905,LiBi(BO3)2
mp-10953,0.9581,Sc2CdS4
mp-764250,0.4714,Li4Nb3Fe2Ni3O16
mp-758985,1.192,RbTiPS5
mp-770192,0.4488,Li2CrO3
mp-754107,2.0435,Y(BiO2)3
mp-560798,2.3757,Ba3Dy2(PS4)4
mp-504934,0.5683,Sc2CI3
mp-570106,5.3967,Yb(AlCl4)2
mp-752515,3.2141,YTa3O9
mp-18315,3.1656,Cs6Si2O7
mp-763767,1.4789,Fe5P3O13
mp-707754,3.6126,CaH2I2O7
mp-12449,0.411,LiPr2OsO6
mp-996955,1.279,HAuO2
mp-27436,2.4199,PaCl5
mp-696174,3.1677,NaH3C2O5
mp-998536,4.2996,RbCaBr3
mp-23052,1.2218,ZrIN
mp-774383,1.4772,V4(OF3)3
mp-780393,5.0472,HoBO3
mp-16136,3.8553,Sr3TaGa3(SiO7)2
mp-32597,0.3474,Bi13O20
mp-23211,4.3491,PrCl3
mp-662530,0.9068,KNiPS4
mp-4805,2.0423,Gd2SO2
mp-754526,4.4281,TmBrO
mp-8874,6.4208,LiSiBO4
mp-29977,2.5462,Rb3BS3
mp-770668,1.24,Li24Mn11CrO36
mp-1019543,5.3187,BaCaP2O7
mp-690607,1.6946,K2BaNi(NO2)6
mp-641678,2.5383,XeF6
mp-735715,0.8979,YbV4O8
mp-22877,1.2311,VCl2
mp-762980,1.6043,VO2F
mp-767467,1.0523,Li7Y7Zr9S32
mp-776250,0.8703,Zr2N2O
mp-29961,4.6659,Sr(C2N3)2
mp-556372,5.6741,CaSO4
mp-555481,3.5263,Ba6Er2Ga4O15
mp-27254,1.7575,Ba(TeO3)2
mp-5024,4.4697,ZrP2O7
mp-18068,1.6312,Ag2TeO3
mp-1009820,0.6257,SnC
mp-989550,2.4472,Rb2TlInCl6
mp-755251,3.2044,Gd2HfO5
mp-768164,3.7899,LiGePCO7
mp-555027,1.8998,CdGe(BiO3)2
mp-557772,5.3644,CsNiF3
mp-556649,3.9512,Li4Ga3Si3BrO12
mp-765171,0.3453,Li4V3Co3(SbO8)2
mp-780721,2.535,Na4Bi2O5
mp-4748,1.6811,NaNbO3
mp-676020,4.0185,BaCO3
mp-778821,2.7738,Li3MnFe2(BO3)3
mp-16454,1.1721,BaPr2ZnS5
mp-559276,3.0136,AlBPbO4
mp-775193,2.4237,Li7Fe3Ni(PO4)6
mp-38307,4.5378,MgAl2O4
mp-582182,0.9354,Cs5In3As4
mp-757116,2.0414,Rb3ErO3
mp-778728,0.4659,Li2MnVP2(HO5)2
mp-557888,2.7062,K5U2O4F9
mp-779637,5.6319,Ho2P4O13
mp-759894,2.6831,Bi7(O2F3)3
mp-24463,5.4859,H3SO4F
mp-17825,4.3768,Sr2SiO4
mp-8579,0.8761,Ba(AgS)2
mp-774231,2.7842,LiFeB2O5
mp-581024,0.8634,CsK2Sb
mp-9538,0.3499,Ag3AsS4
mp-3136,1.5375,NaNbO3
mp-29970,0.9143,Cs3Sb5O14
mp-763362,3.383,LiMnF3
mp-5476,6.2813,Cs4Mg3F10
mp-21567,2.9907,SmAl3(PbO4)2
mp-778326,0.6997,Ti3FeNi2(PO4)6
mp-772024,3.031,Ba3LaBr9
mp-643895,2.5856,Cs3MgH5
mp-29857,1.0709,Bi3Se4Br
mp-6763,3.2596,K2Ti(Si2O5)3
mp-733747,2.3909,CdRe2H16C4S4(NO)8
mp-23792,4.8462,NaCa2Si3HO9
mp-1008523,1.5311,BC2N
mp-530524,3.4196,Zr3TlF15
mp-32081,0.8877,LiMo2(PO4)3
mp-17771,3.2139,NaMg4(AsO4)3
mp-547244,3.3117,SrBiClO2
mp-10996,0.684,Yb(MgSb)2
mp-560569,0.6055,KPrPdO3
mp-555946,3.4763,Pb2CO3F2
mp-734069,4.5377,BH10C2N5O3
mp-767533,4.087,Na2LaPCO7
mp-16800,4.3572,Sc2(SO4)3
mp-543034,2.6358,Ba3Zn6Si4TeO20
mp-554157,4.2047,KNaZnP2O7
mp-541932,5.0308,H13S2N3O8
mp-6726,5.2743,CsLiSO4
mp-760782,1.662,Li5CuF6
mp-721813,5.2842,AlH18CS2N3O14
mp-20815,3.3457,SnPbF4
mp-30159,1.9127,AuBrF6
mp-644271,3.4984,LiHS
mp-8355,4.5002,KAlSiO4
mp-7611,4.1135,Li2CaGeO4
mp-643013,4.1284,ZrP2(HO3)2
mp-556406,4.5235,AsS2NF10
mp-540644,1.2882,Sn4SI6
mp-505731,1.4697,Ba2Co(PO4)2
mp-778814,3.6121,Tm2WO6
mp-30248,1.0287,LiMoS2
mp-760375,1.8951,Li3VS4
mp-26949,4.1176,LiSn2(PO3)5
mp-23849,5.5815,Li2H2SO5
mp-561190,1.7396,NaAu(SO4)2
mp-27831,3.562,Rb2ZrCl6
mp-24109,5.2655,NaP(HO2)2
mp-697139,4.7328,PHN2
mp-27949,5.2581,Si2H6O
mp-19031,3.0556,RbVO3
mp-542266,5.4436,KSmP3HO10
mp-555392,1.8901,K6NaAu2IO8
mp-542099,1.7689,Cs4PbO4
mp-23395,1.9748,Hg2ClO
mp-775196,0.2757,Li2MnCr3O8
mp-558838,2.0496,NiPtF6
mp-865492,1.0972,LuCuPbSe3
mp-761911,0.869,Li2Cu(PO3)4
mp-558122,1.9163,GdSClO4
mp-9125,2.6959,Ca(SbO3)2
mp-776293,0.3945,Na4Sb2C4SO16
mp-764248,2.1318,Li2VCr(P2O7)2
mp-574599,1.7167,CsAuSe
mp-776253,1.6083,Li5SbS4
mp-769649,2.3505,GdTa3O9
mp-9765,1.0846,Nd2Pt2O7
mp-755104,3.9904,Ba2YCl7
mp-33880,0.3663,Sr(GaTe2)2
mp-675857,0.2209,Cd2SnO4
mp-558886,1.3671,K2Ce(NO3)6
mp-767672,1.913,LiVF5
mp-850916,0.2066,LiCoOF2
mp-768243,3.1721,Tm2TiO5
mp-764774,2.3027,LiTi2V3O12
mp-14577,1.7128,Rb4Ta2S11
mp-24345,5.0206,ZnH12(SO6)2
mp-15382,5.231,TmP5O14
mp-19450,3.6201,ScTl(MoO4)2
mp-774373,2.748,Li3MnFe2(BO3)3
mp-572921,2.4286,Cs2Ga3As5O18
mp-21989,3.4667,Ca3Sc2(GeO4)3
mp-28535,3.4156,Ca2Se3O8
mp-557793,6.1953,Rb4LiZr3H2F19
mp-5185,6.8711,K2BeF4
mp-753854,4.0775,Rb2PH3SeO8
mp-18987,3.3441,LiMoP2O7
mp-27473,3.9651,Sb2TeF14
mp-555252,3.0729,Rb2Ti(GeO3)3
mp-6394,3.056,RbTiAsO5
mp-756578,1.9732,LaMgI5
mp-673119,3.7475,LiSn2P3O10
mp-9126,2.7813,Sr(SbO3)2
mp-559337,2.2151,Nd7(S2Cl3)3
mp-6115,4.3516,K2Zn2(SO4)3
mp-767409,0.6476,Li5SbS
mp-568134,2.8586,Cs2CdI4
mp-1019518,4.8767,Ba2CaSi4(BO7)2
mp-772605,1.7498,NaSnAsCO7
mp-28122,2.1377,LiGdCl4
mp-13801,0.6975,Tl2Pt2O7
mp-654008,0.3985,K3Cr11S18
mp-554879,0.449,CuHgSBr
mp-567836,1.777,K2NaBP2
mp-30249,2.4872,Li4GeS4
mp-37399,3.5111,Li7NbO6
mp-766433,1.1984,Sr3Li4Nb6O20
mp-29848,2.0884,IF3
mp-997394,2.864,NbAgF6
mp-771916,4.4017,Li2NiH8(CO5)2
mp-17155,1.3022,La3AgSnSe7
mp-780490,1.1546,LiCr(PO4)2
mp-28570,2.4484,NaInI4
mp-990448,0.5856,C
mp-541771,0.4525,Bi4RuI2
mp-765357,0.4997,Li3V2(OF)3
mp-17953,3.4118,MgNb2O6
mp-561022,6.6874,SrMgF4
mp-676687,1.1348,RbAg4I5
mp-762870,1.6394,Li2CrSiO4
mp-973981,4.3926,LuBrO
mp-40484,2.1497,NaNd3Ti2(SbO7)2
mp-1001079,1.8856,Li(CN)2
mp-541238,2.5486,KTi2(PO4)3
mp-776053,1.5632,Li2TiMn2O6
mp-18335,1.2916,Ba2Ge2Se5
mp-777890,2.0725,Ti3NiSn2(PO4)6
mp-557832,2.0311,K2Cd(AuS)4
mp-3671,2.3619,NaNbO3
mp-769040,2.4442,Li5BiO4
mp-850779,3.1745,HoTa7O19
mp-555821,0.6883,Na4Cu(AsO4)2
mp-27641,2.1972,CsBr3
mp-34038,1.2086,Li6NCl3
mp-510539,0.9929,Dy3CuSnSe7
mp-28428,1.059,K3Nb2Se11
mp-700,0.8946,GeSe
mp-559118,3.3884,CsTa(PO4)2
mp-558007,3.5973,Sm(IO3)3
mp-778749,1.5214,VOF2
mp-567983,1.1377,ErCuPbSe3
mp-553880,2.031,ZnS
mp-677075,1.4052,Gd2CdS4
mp-23961,1.3303,Na3AsH18Se4O9
mp-554663,4.5874,Mg2SiO4
mp-18247,2.2661,Sr3ScRhO6
mp-559369,1.4476,Zr2H12(N2O7)5
mp-772064,3.5974,BaLaCl5
mp-626470,4.9893,Al(HO)3
mp-760676,0.4217,LiCu2PO4
mp-12509,1.3104,YZnPO
mp-19345,1.0903,ErMn2O5
mp-561423,2.2066,ZrTlCdF7
mp-600060,5.6832,SiO2
mp-753600,2.1123,Bi3O4F
mp-743841,3.0639,MnPH6NO5
mp-770931,0.387,CuTeO4
mp-760778,0.405,Li2AgF5
mp-27405,3.3396,SnAsF7
mp-3956,2.2081,Sr3UO6
mp-866936,0.2488,CaSnS3
mp-675209,2.0704,Dy2PbS4
mp-756030,3.1589,GdTmO3
mp-1019570,4.5459,Ca8Si5O18
mp-7886,6.2112,Cs2RbYF6
mp-6537,0.3338,CaCu(GeO3)2
mp-743588,0.9829,Mn3H24(O3F2)4
mp-696288,4.2688,LiH3(SeO3)2
mp-764654,1.3871,Li5Fe8(BO3)8
mp-554606,0.2052,Cu7As6(PbO12)2
mp-557,2.8135,TeO2
mp-17792,1.5638,K2Hg3(GeS4)2
mp-772421,2.033,KLi2FeO3
mp-542214,5.46,Si6Cl10O7
mp-647342,2.0859,SbP3C(NCl5)3
mp-541218,2.8793,GdP2H9O10
mp-14600,4.3887,CaAl2O4
mp-645282,1.5953,Al3Bi5Br12
mp-753976,2.7254,GdAsO4
mp-866503,2.2605,Ca2SnS4
mp-766293,3.0201,Al11AgO17
mp-557451,2.9738,CsReOF6
mp-1045,3.708,Nd2O3
mp-3881,4.5488,BaZnF4
mp-774252,0.8097,Li4Cr2Fe3Sb3O16
mp-989566,3.2851,Rb2InGaF6
mp-772073,2.5522,Li2Nb4O11
mp-568386,0.8352,Ag10Te4Br3
mp-3443,1.5784,Cd(GaO2)2
mp-28599,1.9824,Na4Br2O
mp-583646,3.0607,Na2Gd2B2O7
mp-10662,3.2835,K2CO3
mp-756460,1.3147,Ga2HgO4
mp-7538,4.3791,LaErO3
mp-7018,1.9289,LaGaS2O
mp-16993,4.6529,Er2SiO5
mp-29371,1.0309,Rb2GaSb2
mp-782105,2.7237,Na3SbH30S3N10
mp-1858,4.2065,HfO2
mp-686308,0.8366,Na6Ga5Si7H15O32
mp-30906,4.1241,Sr2Al6O11
mp-14288,0.9036,Sr3P4
mp-15560,4.8879,Ga(PO3)3
mp-985575,2.1189,LiAg(CO2)2
mp-561244,3.8104,AsCSCl2F9
mp-772429,2.8422,Li2V(BO2)5
mp-568638,1.5124,Y3CuSiSe7
mp-779312,0.6501,Li2Mn(BO3)2
mp-28271,4.1516,Sn5BF13
mp-643575,1.9233,CoH12(BrO7)2
mp-755742,1.3472,Ho2Sb2O7
mp-29739,0.2327,Na5SnSb3
mp-849689,1.162,FeO
mp-999549,1.1319,WN2
mp-560176,6.8323,K2NaAl3F12
mp-560192,2.177,TaP4(SCl)5
mp-1100,1.0344,YbC2
mp-11168,0.4185,Ca(PIr)2
mp-556584,3.707,Pm2O3
mp-3963,3.6392,K2CO3
mp-764510,0.5747,FeOF
mp-707762,4.1845,K2CaH8(N3O)4
mp-754202,5.3749,CsClO3
mp-781011,1.8989,V3OF11
mp-2472,3.2874,SrO
mp-558669,4.686,SrAl2B2O7
mp-558688,3.3452,Ba2Sc2B4O11
mp-29636,1.7885,KMnBr3
mp-17662,0.5867,Lu2PdO4
mp-19054,4.0791,BaMnCO3F2
mp-558212,3.4453,KNaNdNbO5
mp-775110,1.7305,Li2Ti3CoO8
mp-3311,2.0904,SrUO4
mp-6744,0.217,K2Fe(PS3)2
mp-625208,1.9343,H8PtO6
mp-19346,3.4938,Fe3(PO4)2
mp-9082,2.1556,CsSmS2
mp-864603,2.875,YbH2
mp-552963,0.8414,Pr2Ti2S2O5
mp-642847,2.388,Li4H6Ru
mp-558980,1.8982,Er3CuSiS7
mp-569869,5.5134,Sr(AlCl4)2
mp-628908,2.3549,KICl2
mp-540610,1.4482,K2U7O22
mp-22633,1.1366,Pb3O4
mp-24369,4.6955,Na2Si(H4O3)3
mp-776890,0.9377,Rb2O
mp-6331,4.3701,Na2Y2B2O7
mp-567568,2.6134,SrCa2WN4
mp-18498,2.1461,Sr3YRhO6
mp-644506,4.9327,NaAlH2CO5
mp-555182,4.5404,Na2Be2(SiO3)3
mp-775829,1.0599,Ti2N2O
mp-573358,1.6151,CsBSe3
mp-11602,0.9975,KY2CuS4
mp-7643,1.1994,K2AgSb
mp-569442,1.9209,RbAuCl4
mp-5532,1.9142,Sr2TiO4
mp-755685,4.2072,SmYO3
mp-775149,2.2235,Ti(SO4)2
mp-27664,2.1639,TiPCl9
mp-721216,4.9358,Al2Si2H4O9
mp-19484,3.2315,BaCaV2O7
mp-649619,2.0202,As3Pb5ClO9
mp-30014,1.1516,As2Kr3F16
mp-29680,2.8001,Ta2Bi4O11
mp-697284,4.5855,KH3SO6
mp-777417,0.4045,Li4Ti5Mn3O16
mp-14873,1.8861,K4Nb8Si(P2O17)2
mp-694875,0.2261,Ba2Ca2Zn5Fe3O14
mp-9367,2.3665,RbErS2
mp-9275,3.2381,Th2Ta6O19
mp-34234,3.065,Al2NiO4
mp-688785,3.1046,Al2NiO4
mp-555652,4.4001,K2Zn(SO4)2
mp-567741,3.7483,PC2N3Cl4
mp-764844,1.3448,Li7V4O11F
mp-9486,6.3243,K2AlF5
mp-22450,1.0475,Li2PbO3
mp-652220,3.1115,PBr2N
mp-19110,3.0724,BaCrP2O7
mp-557351,3.4326,Bi(BO2)3
mp-558582,4.3722,In(PO3)3
mp-28397,0.4887,Sr4Bi6Se13
mp-696998,4.1881,K6BiH3(Cl2F)4
mp-17254,1.3648,TlGaSe2
mp-676893,5.5409,Ca4ThF12
mp-5038,3.0547,CsGaS2
mp-557881,5.5233,SiO2
mp-759342,2.1079,Nb9AsO25
mp-14242,1.1278,Tl2GeSe3
mp-17392,3.1171,Sr2ZnGe2O7
mp-559835,5.6915,BaTaF7
mp-974381,0.4237,Rh2S3
mp-7719,5.7626,NaTm(SO4)2
mp-555853,0.3185,In6S7
mp-555105,2.4923,Ta9Pb12O20F29
mp-770357,1.8112,Li2AlNiO4
mp-22934,1.8332,K2PtCl4
mp-23806,3.9771,BaAsH3O5
mp-642750,0,NaV2O4
mp-24046,5.3109,NaAlH24(SO10)2
mp-756316,2.1491,Li3SbS4
mp-24160,7.719,BH3NF3
mp-510346,0.749,In5Se5Br
mp-642975,2.5148,CrBi12Mo4PbO34
mp-574653,5.4034,Cs2LiIr(CN)6
mp-778364,3.4152,Na6Ti2O7
mp-756096,2.4005,Hf2N2O
mp-21879,1.4204,Ba2CePtO6
mp-559455,3.4119,C2SNCl2F5
mp-3041,1.1466,Er2CdS4
mp-5163,0.594,LaRhO3
mp-699219,3.4269,NaZnSiHO4
mp-775461,1.1613,Li2V3FeO8
mp-29388,1.8022,K2Ge2Se5
mp-864652,0.4531,Nd3MnAlS7
mp-27674,3.057,K5As3O10
mp-30847,0.7978,TiSnPt
mp-571415,1.1278,Ba3(PSe4)2
mp-770844,1.7589,V3(PO4)2
mp-756624,3.9838,Ba2SrI6
mp-5122,1.3453,Na3AlP2
mp-570046,2.0105,Sr3MoN4
mp-866475,0.6261,Ca3Sn2S7
mp-8452,2.1966,NaLiS
mp-1287,1.5071,KS
mp-12444,1.5103,SrCuSF
mp-870,1.7592,TlN3
mp-31268,2.5681,AlBiBr6
mp-559703,3.2283,BaLa2Te5O14
mp-24362,0.5754,CuH6CN2O3
mp-1019521,1.2902,Ba3MgGeN4
mp-18229,3.4758,CaTa2O6
mp-31166,1.5602,DyTlS2
mp-763178,1.3917,Li4Ti3Ni3(TeO8)2
mp-16764,1.3667,RbYTe2
mp-553950,2.9613,Li10Si2PbO10
mp-778865,1.2831,V4(OF3)3
mp-2254,4.8274,Al2O3
mp-754145,4.6812,TbLuO3
mp-3359,2.4486,Ba2SnO4
mp-625054,5.1404,AlHO2
mp-774224,3.843,InH12S2NO12
mp-556234,1.1656,Rb3Sb5O14
mp-9664,1.6773,K3BP2
mp-733,3.2511,GeO2
mp-989555,2.399,Tl2InGaF6
mp-776561,0.3287,Na5Bi2As(CO4)4
mp-557134,5.43,SiO2
mp-21741,0.7808,K2In2As3
mp-572149,2.9081,Cs2Al(NO3)5
mp-17677,2.111,Nb9PO25
mp-541811,0.6365,Cs6K3GaSb4
mp-850763,1.9637,LiCrP2O7
mp-6803,4.5408,Sr3Pr2(BO3)4
mp-763313,1.3956,LiCoSiO4
mp-767415,0.4428,KNbPCO7
mp-698644,0.5497,Tm2PbS4
mp-573316,1.0979,CsPt2Se3
mp-17100,3.6599,In2P2O7
mp-581173,1.3432,Cs10Si7O9
mp-781828,0.7234,NiH18(I5N3)2
mp-772256,1.605,LiVPO5
mp-863292,0.4375,Na3VP2O9
mp-560490,3.2758,La2C2N4O
mp-17012,1.5302,Sr2VN3
mp-555800,4.3649,La2Si2O7
mp-557737,2.6577,Al2BiS4
mp-554769,0.7937,MoSBr
mp-15078,5.6346,SiO2
mp-17350,2.9619,La2TeO6
mp-754537,4.7916,LiLuO2
mp-11673,3.5636,Sc2(SeO4)3
mp-779453,1.6482,BaNa6O4
mp-8514,2.2244,BaNd2PdO5
mp-770328,2.174,Li4Cr3FeO8
mp-850995,1.5699,Na4V2C4SO16
mp-567716,4.7364,AlTlCl4
mp-759792,2.8703,Ag2B8O13
mp-769524,1.2285,Li11Nb4(Ni3O8)3
mp-542199,0.4616,Ag4HgGe2S7
mp-24337,5.3709,MgH2Cl2O
mp-7140,2.3015,SiC
mp-17696,1.3896,Ba2VN3
mp-18988,2.2685,Li2MnO3
mp-17229,6.2806,RbBe3ZnF9
mp-680410,1.4261,K3Nb2S11
mp-754818,2.7158,NaTaO3
mp-706653,3.351,H8S2N2O5
mp-768141,4.5321,Na2DyPCO7
mp-703305,4.7495,Na2PHO4
mp-8202,1.8481,CsRb2PdF5
mp-5076,3.5667,SrZrO3
mp-17433,2.0937,NaSr4(SbO4)3
mp-6090,0.4967,Na2Cu(CO3)2
mp-4366,0.5059,Na2PtC2
mp-4284,0.6086,Ho2CdSe4
mp-541593,5.2294,ZrPb2F8
mp-755969,3.0779,Sr3La4O9
mp-546546,5.5638,SiO2
mp-40873,1.5692,Ba3Na2Ti3Nb2O15
mp-6565,4.7366,Li3Sc2(PO4)3
mp-560132,4.7791,Nd2SiO5
mp-10791,5.1315,ErBO3
mp-541282,3.996,KZr2(AsO4)3
mp-7744,5.7849,LiSO3F
mp-30206,5.444,CsClO4
mp-35909,0.9912,AgBiI4
mp-772109,2.9536,LiSiBiO4
mp-8147,0.6798,K2As2Pd
mp-684539,3.4734,Li3Sb2(PO4)3
mp-768145,3.0531,DyHoO3
mp-6160,4.313,Rb2PO3F
mp-9650,2.8403,MgTa2O6
mp-31117,4.2936,NdScO3
mp-10341,2.9561,SrGeTeO6
mp-7608,1.1839,Li2PdO2
mp-19462,3.5098,KP2WO8
mp-622213,2.1396,GeS2
mp-561200,1.6666,Na3MnF6
mp-571228,1.0813,Rb5Sn(PSe5)3
mp-18805,0.434,Sr2CoMoO6
mp-31127,5.2118,Sr3P4O13
mp-1019783,3.7462,K2S2O3
mp-696851,4.6241,ZnH12C2S2(N3O4)2
mp-772034,2.2282,Ba3LaI9
mp-4192,0.894,Ca3AsN
mp-768483,3.1062,Lu3Sb5O12
mp-555976,3.2091,Na2TiSiO5
mp-558257,4.3671,DySeClO3
mp-780319,0.8977,Li3MnP2H2O9
mp-19241,1.5337,BaNiO3
mp-559612,2.3798,KLiO
mp-14485,3.124,LaTa7O19
mp-34034,1.1637,Ba8P5Br
mp-26209,4.156,LiBiP2O7
mp-766447,0.7526,Li2Cu4S3
mp-772769,3.1081,Na2Ge2O5
mp-763908,0.3053,V3O5F
mp-775750,0,LiFe(Si2O5)3
mp-676300,2.0596,Sc3NbO7
mp-780448,1.8381,Ho2Sb2O7
mp-6663,2.6592,NaLiGe4O9
mp-27418,1.0997,KAuO2
mp-560293,1.9349,LiLa5Ti8O24
mp-850135,0.8467,Li3V2Cr2O8
mp-565428,0.8834,Mn4Bi3NO15
mp-6081,3.722,Ba2Ti(SiO4)2
mp-22939,2.5688,BiClO
mp-558108,1.693,U3Tl2(IO5)4
mp-17560,2.0755,Na2UO4
mp-755082,3.7914,Sr3(AsO4)2
mp-15432,1.0329,K2Ga2As3
mp-643264,1.4676,BaMg2FeH8
mp-556407,2.0712,Ba3Bi2TeO9
mp-985571,2.6893,LiAg(CO2)2
mp-675750,0.9728,Ca(Ga3Te5)2
mp-23740,4.9828,Mg2PHO5
mp-770509,0.3487,LiAlVO4
mp-554442,2.0905,LiAuF4
mp-28123,7.2568,H7NF4
mp-706622,4.8465,PH6(NO)2
mp-961649,1.1587,ZrFeTe
mp-775213,1.5055,VNi3Sn2(PO4)6
mp-560407,3.4311,KNbSi2O7
mp-567329,0.2483,CrHg6As4Br7
mp-759678,1.9459,Li4Ti15O32
mp-674373,1.6521,Rb2U2O7
mp-560449,3.7443,K3Ni2F7
mp-782660,3.7593,LiMnP3H8O13
mp-561861,0.2007,KMg2V3(CuO6)2
mp-555526,2.476,RbAg(NO3)2
mp-754382,16.5975,He
mp-773138,0.9457,NaCrAsCO7
mp-7566,2.3474,InPO4
mp-760701,3.4238,LiNbO3
mp-769606,1.4198,LiZn4Fe13O24
mp-38220,3.0132,RbNO3
mp-6450,1.8855,K2LiAlP2
mp-763065,0.9515,FeOF
mp-1938,5.3132,Al2O3
mp-19440,2.826,LiVO3
mp-4636,2.4096,ScCuO2
mp-556522,0.5758,K3Cu2(BiS2)5
mp-4591,2.9952,SrNb2O6
mp-697701,4.8172,LaP3H8O7
mp-6330,2.3991,RbUN3O11
mp-698160,5.1632,Al3P2H14(O5F)3
mp-924129,0.4988,ZrNiSn
mp-863971,4.2757,K2Mn3P4(HO3)4
mp-28545,2.2522,RbLiO
mp-780089,1.4724,Li3MnSi2O7
mp-24361,5.6497,CaP2(HO2)4
mp-18422,1.852,RbLiZn2O3
mp-6652,2.8192,KZn4(BO3)3
mp-1019595,1.8304,Ce5Zr3O16
mp-541024,5.4065,CsTmP4(H2O3)6
mp-30009,2.8529,KrF2
mp-18111,3.9352,Ba2LaC3O9F
mp-36508,2.4355,SnHgF6
mp-556961,5.4801,SiO2
mp-30989,3.6377,Sn(NO3)4
mp-542151,2.5737,V2Ni3O8
mp-557308,2.0245,ZnS
mp-19087,1.908,Na3Co2SbO6
mp-765943,0.8773,Li3V2(O2F)2
mp-546633,5.128,KClO4
mp-734836,3.7889,ZnH12C6S2(N5O)2
mp-23127,1.7356,Ba2BiSbO6
mp-2782,1.466,ZnP2
mp-616461,4.5763,Na2ZnCl4
mp-763549,1.411,LiMn(CO3)2
mp-753747,2.2457,Ta3O7F
mp-647575,4.5367,K2ZnCl4
mp-554310,0.4247,TlBiS2
mp-571164,1.173,Rb3AgSn3Se8
mp-28713,2.9242,Na2Te2O5
mp-14447,2.2776,Ba2SiSe4
mp-22990,2.215,CsICl2
mp-625487,2.4257,Zn(HO)2
mp-777452,2.2403,LiNbCoO4
mp-23181,3.8416,SrI2
mp-690530,0,Li2Co4O5
mp-604996,0.6548,CuH12N2(Cl2O)2
mp-755405,3.4216,SrNd2O4
mp-989610,1.2663,Cs2NaInH6
mp-559347,5.6333,SiO2
mp-230,1.8871,SbO2
mp-571467,4.2175,Cs2NaYBr6
mp-774385,1.3144,Fe5(OF4)2
mp-14380,5.1436,CsNaSnF6
mp-559059,1.6896,K3Nd(AsS4)2
mp-779880,3.4905,Ba2GeO4
mp-1019558,4.7621,BaSr2Mg(SiO4)2
mp-567629,2.0121,CsPbBr3
mp-780489,0.2369,Fe6O7F5
mp-600002,5.461,SiO2
mp-676,3.4199,CaN6
mp-35555,4.7564,LaOF
mp-767775,1.0358,Li6MnCr3(PO4)6
mp-780095,3.7991,LiMnP3(HO5)2
mp-15511,2.0443,CaTe3O8
mp-1018031,2.0793,KInO2
mp-650031,1.9239,La4(GeS4)3
mp-15148,1.3943,K4Nb2S11
mp-6521,2.2645,LiLaTiO4
mp-8249,1.74,TlPS3
mp-643570,3.9335,NiH2SO5
mp-13840,4.4234,Ho3ScO6
mp-765901,0.5104,Li4V4(OF3)3
mp-18759,0.6389,Mn3O4
mp-1020058,3.4668,Mg(NO3)2
mp-541090,1.2715,Ce(SeO3)2
mp-510283,1.663,CsGaSe3
mp-754971,2.2669,Cs3TmO3
mp-775264,0.6985,Li4Ti2Co3O10
mp-762319,3.8456,Li4TiO4
mp-561313,0.3017,Si2Ag6O7
mp-27211,4.6708,KSb4F13
mp-752691,4.1002,Sr3Hf2O7
mp-570167,0.7857,Rb3SnP3Se11
mp-4624,3.4373,TaBO4
mp-2911,0.7939,Ba3(SnP2)2
mp-754282,2.9368,SrO
mp-755013,3.72,Li5TaO5
mp-23755,2.858,BaH3C3O7
mp-9720,1.5912,Rb3BP2
mp-9488,4.693,SmOF
mp-754384,0.9871,ScTlO2
mp-19155,1.9113,CrHgO4
mp-22922,0.9539,AgCl
mp-18897,3.0202,NaVTeO5
mp-759031,2.0105,Bi19(O9F)3
mp-18006,0.847,Rb2Cu2SnS4
mp-720287,3.0169,Na3AsH22S2O13
mp-29221,7.1413,Ca2AlF7
mp-557840,4.1782,NaLa(SO4)2
mp-738629,5.2376,CsGaH24(SO10)2
mp-756270,5.2333,Lu4(B2O5)3
mp-704114,2.6291,VBi(PbO3)2
mp-774173,3.1161,Li8MnFe7(BO3)8
mp-4180,4.6785,Ca2SiO4
mp-1020180,5.004,Na2SrMg(PO4)2
mp-568469,1.5275,Ca4TiN4
mp-769931,3.3894,Tm3TaO7
mp-34580,5.0743,Er3Pb4F17
mp-3536,5.1111,MgAl2O4
mp-27135,4.5362,Bi(PO3)3
mp-776490,5.4415,Al2O3
mp-626448,5.643,H4SO5
mp-850955,3.9341,LiFeP3(H7O8)2
mp-8393,1.598,Tl3SbS3
mp-690560,2.8106,TiTlWO5F
mp-560247,4.7982,Li2Ca2Si5O13
mp-779058,0.6405,LiV2OF5
mp-34982,0.3709,Ag3AuS2
mp-773438,1.6417,Li5Cu(PO4)2
mp-27931,2.2278,Rb2SnO2
mp-556281,5.06,Sc(PO3)3
mp-20310,1.6235,LiInSe2
mp-757376,4.5874,KAl11O17
mp-9510,1.2985,Tl2PAuS4
mp-775865,2.3698,Li2Ti3MnO8
mp-639480,5.6231,SiO2
mp-755892,3.8396,SrLa2Cl8
mp-557071,2.3531,KBi6ClO9
mp-530379,2.43,Tb2TiO5
mp-38011,3.2248,KHS
mp-558114,2.954,Sr4NbAlO8
mp-558781,4.0258,ScTaO4
mp-570005,3.1147,SbBr3
mp-29264,1.6611,SICl7
mp-29267,0.6025,Sn5Sb2S9
mp-541622,0.4123,KCu3Te2
mp-10795,0.5975,TaTlS3
mp-769602,2.238,Li2VSO4F3
mp-761922,1.4654,LiNb(TeO4)3
mp-15571,2.0532,K3AuSe2
mp-38327,2.1436,Ca(TbS2)2
mp-555144,7.0835,BaAlF5
mp-755902,3.596,Lu(HO)3
mp-777584,2.7711,Na7NbO6
mp-556814,4.0585,LiNdGeO4
mp-673070,2.2718,LiNb(PO4)2
mp-555160,4.3894,CsYSeCl2O3
mp-556414,4.3407,CsTmSeCl2O3
mp-4172,1.0516,Na5GeP3
mp-556934,6.9805,KNaSiF6
mp-6101,2.2811,Ba3Nb6(Si2O13)2
mp-758103,3.4584,YH2(CO3)2
mp-976349,4.8104,LuH2ClO2
mp-554058,3.2029,K3NdH6(C2O5)3
mp-23846,6.9619,KHF2
mp-555237,4.7016,PrSClO4
mp-622521,3.4403,BaNd2(MoO4)4
mp-690525,3.455,MnCO3
mp-776646,1.5316,Na3CoO3
mp-19044,1.0033,Na2FeO4
mp-1019515,1.4176,Ba3Ga3N5
mp-771733,0.2823,Li3MgV8O16
mp-531265,2.4178,Ca3(BN2)2
mp-695982,5.1443,BaNaP3(HO2)6