id,formation_energy_per_atom,pretty_formula
mp-1019808,-2.917709987,KBe2B3O7
mp-977351,-2.522560002,Ac2S3
mp-11440,-0.455504472,HfGa2
mp-16061,-1.437247881,Sr6Sb6S17
mp-681439,-3.177846655,LiZr2(PO4)3
mp-4124,-1.083013537,CaCN2
mp-763934,-2.770650561,Mn3OF5
mp-16585,-2.503711422,HgB4O7
mp-23152,0,Bi
mp-3263,-2.844895513,USO
mp-978515,-0.393956503,SmYAl2
mp-779894,-2.078773647,Fe6O7F5
mp-867889,-3.137168266,KNaGdTaO5
mp-771365,-2.554763283,Li24Ti5Cr7O36
mp-676389,-3.580107797,Yb2Zr8O19
mp-812,-4.056114552,Ho2O3
mp-12378,-0.898950344,LaSnRh
mp-569508,-0.732237571,Pr6Cd4Pd13
mp-510624,-2.337994561,SrFeO3
mp-690490,-2.974431815,TiVO4
mp-752891,-3.303971385,LiTi3O6
mp-558946,-1.808200813,BaSbSe2F
mp-698722,-3.251608994,Ca5Yb3Ti5Mn3O24
mp-768974,-2.679784697,BaY3Cl11
mp-672679,-0.578694868,Y4InIr
mp-555827,-2.056331606,Sr2Cu(BiO3)2
mp-3465,-0.673122212,LaB2Rh3
mp-560217,-3.011837399,K2Al2B2O7
mp-30520,-0.615908205,Tl2S5
mp-12921,-1.119435982,PrPIr
mp-11239,-0.124245653,ZrAg
mp-1004528,-3.160812735,CsB3PbF12
mp-770360,-2.708848598,Li2AlVO4
mp-555276,-2.238844378,Sm2US5
mp-779712,-3.074836023,Ti17(NO4)6
mp-13674,-0.240873378,NaGeAu3
mp-30846,-0.510253688,Sn3Pt2
mp-973968,-0.52219624,KNaO3
mp-2305,-0.074894229,MoC
mp-23499,-1.843284186,K2SnCl6
mp-11927,-0.220708158,Pr2AlCo2
mp-557364,-3.017783014,CdB2F8
mp-2636,-0.102717075,GdMg
mp-27369,-1.67141577,RbGeCl3
mp-643067,-0.109167142,Mg3Sn
mp-16036,-3.261293252,Tb2TeO2
mp-19850,-0.243098319,MnCo2Ge
mp-774233,-0.955640978,Co(IO3)2
mp-769928,-2.467692977,Li4NbV3O8
mp-9509,-1.098614627,K2PAuS4
mp-12039,-0.298184888,Gd2Mo2C3
mp-13743,-1.909979299,K3GaO3
mp-2665,-0.097519312,PrRu2
mp-768599,-1.743494605,LiCuCSO7
mp-764940,-2.197338693,FeOF
mp-754381,-1.658170894,Zr3N4
mp-974425,0.145488543,Re3Si
mp-676074,-3.860423227,Na2ThF6
mp-672273,-1.697032287,AlBiCl6
mp-5057,-0.615013505,Nd(SiAu)2
mp-8719,-0.75816738,K2MnTe2
mp-570583,-1.013906598,P4N3Cl11
mp-22978,-1.931147433,Rb2MnCl4
mp-568375,-0.455672719,La2Rh7
mp-28037,-0.825229663,Mo2SBr2
mp-11499,-0.086222558,YMg2
mp-652046,-0.903103977,Re3S4Br
mp-1006324,-2.466954832,Ce(YS2)3
mp-30532,-0.654977146,Tl2ZnI4
mp-674972,-1.85143981,Rb6Pb5Cl16
mp-30776,-0.03791589,PrMg12
mp-8678,-3.104074072,NaAlPO4F
mp-625894,-1.372992003,Ba(H2O3)2
mp-12368,-1.979873343,SbS2NF6
mp-9805,-2.345140634,KYb(CO3)2
mp-754246,-2.774851074,TiSnO3
mp-28410,-0.375723816,ThP7
mp-23675,-0.71302015,H4BrN
mp-742819,-0.954426901,MoH12Pd(NO)4
mp-30023,-2.278790036,Ba(AlCl4)2
mp-573114,-1.840006299,Gd3CuGeS7
mp-973815,0.184003476,Pa3Ta
mp-624000,-0.523659944,Re(Te4Cl3)2
mp-684104,-2.452823979,LiSb2P5O16
mp-17366,-3.495059319,Ho2SiSO4
mp-903,-0.042839572,ZrCr2
mp-3335,-3.74726003,Sm2Ti2O7
mp-866492,-1.380803105,Cs9AlO4
mp-771834,-3.758554033,Tb3NbO7
mp-2260,-0.23955682,FePt
mp-673156,-2.690977517,Li2NbP4O13
mp-553936,-0.878433393,K2Ag4Pd3(NO2)12
mp-569696,-0.488823026,La(AlGa)2
mp-978964,0.06384517,Th3Mg
mp-568295,-1.409868963,Pr8(BCl)7
mp-768320,-3.640934065,LiLa5Ti8O24
mp-556699,-2.167796572,Na2PHO3
mp-976029,0.083013044,Ho3Zr
mp-864945,-0.423855162,MnBe2Rh
mp-38280,-2.99552767,LiTiO2
mp-849748,-1.95038781,NaMgP3(H4O5)2
mp-976254,-0.024407117,Li3Mg
mp-674508,-2.791473298,RbPbF3
mp-13941,-2.972224667,Sr2YbReO6
mp-1019109,-0.684961183,SmGeRu
mp-760396,-3.369324015,TaAlO4
mp-22740,-0.557462362,CeCuSi
mp-771343,-2.13426846,Na3TlPCO7
mp-675633,-0.079406061,Ag4AuS2
mp-19467,-2.269074854,AgMo3P3O16
mp-971657,0.690021084,Au3N
mp-14983,-0.360182012,Si4P4Ru
mp-387,-1.045159535,CeSb
mp-703297,-1.198135297,H7S(NO2)2
mp-11421,0.09283918,Gd
mp-571599,-0.637938636,Ba(BiPd)2
mp-20289,-1.192925424,NaInS2
mp-849802,-1.624676951,Ba2YI7
mp-764977,-2.720093496,Li2FeOF3
mp-12584,-1.541791676,Th2CrN3
mp-559103,-2.901010175,Na7Y2P7O24
mp-582444,-0.829808921,Os(SeCl6)2
mp-16432,-3.265171446,Sr3(BO3)2
mp-22282,-0.504560916,LaIn2
mp-675327,-0.840424259,Ag9(PbO3)4
mp-765585,-1.95210544,Ca3Tl4O9
mp-27250,-2.190268227,CsTcO4
mp-684493,-2.447471597,LiSn2P3O10
mp-23797,-1.280445285,LiH6ClO7
mp-4736,-2.846713876,NdP5O14
mp-567430,-1.097127356,TlCoCl3
mp-19290,-1.923396758,Mn2As2O7
mp-585963,-0.813766286,Rb7Th2(P2Se7)3
mp-706525,-2.645033199,NaAl3P2(HO3)4
mp-623108,-0.266049724,Eu4Ir
mp-1013691,-0.839781149,Ba3BiP
mp-631329,1.418306856,KMoRu2
mp-560004,-3.082835809,Na2USiO6
mp-761190,-2.362310582,LiCu(PO3)3
mp-24447,-0.819954176,FeCoH18(NCl)6
mp-676937,-2.877369332,Ta8Pb6O25
mp-27451,-0.902124799,Tl3PbBr5
mp-626703,-2.015438759,CrHO2
mp-541857,-1.980294563,GaP(H2O3)2
mp-560663,-0.870855314,Rb(CoS)2
mp-774337,-2.75427201,Li3Ti2FeO6
mp-582142,-0.788251195,Ce3Bi4Pd3
mp-983598,-0.608299605,Ca2AgBi
mp-1001112,-1.289678704,Na2H3CO6
mp-21122,-0.844966054,NdSb2Pd
mp-556843,-2.802942168,NdAsO4
mp-30598,-0.419664931,SrCuSn2
mp-560620,-3.303471835,BaZr(PO4)2
mp-27273,-3.469870622,Ti9O17
mp-7642,-0.402959788,K2AgAs
mp-13272,-0.469894762,BaAlGe
mp-683984,-1.022909764,Al(SeCl)4
mp-704459,-1.878621711,Na2Cr2O7
mp-984769,-0.226698115,CaTl2Cd
mp-2501,-0.302956971,BMo2
mp-779070,-2.474797581,Li2NiP2O7
mp-555546,-1.897212918,MgAs2(XeF5)4
mp-778180,-1.766969628,CsTi(NbCl3)6
mp-773160,-2.126204357,LiCrCSO7
mp-961679,-0.020123,TaAlPt
mp-866066,-0.729542989,B2S3
mp-510011,-1.418407244,La3CuGeSe7
mp-10909,-0.264870975,AlRe2
mp-758635,-1.849414304,UH12S2O15
mp-631267,0.603347673,TaFeSb
mp-1001828,0.015475349,WN
mp-33018,-0.288291643,Rb3Sb
mp-981934,-2.943817611,LaBeO3
mp-20364,0.64774176,K3Rh(NO2)6
mp-773891,-2.200190244,LiCuPO4
mp-541689,-0.908359436,Na7In3Se8
mp-505137,-0.481093361,Nb3SiTe6
mp-10165,-0.784426022,KAlTe2
mp-7064,-3.722049009,Er2Si2O7
mp-7363,-0.36243231,Sr(ZnGe)2
mp-15307,-0.978630653,ErSi3Rh5
mp-849512,-1.780445919,Na7V2O6
mp-30794,-0.140773833,Na15Sn4
mp-14175,-1.688181643,K3NbO8
mp-772590,-2.551587571,Li6V2B4SO16
mp-27718,-0.994547249,CsHgBr3
mp-849423,-2.436088817,Li2MnVP2(HO5)2
mp-10519,-0.661675314,Cu2SnS3
mp-11123,-1.233207205,CsYHgSe3
mp-774922,-2.947174725,Ti3TeO8
mp-755556,-3.075133726,Ba6ZrO8
mp-20424,-0.064114706,MgCo3C
mp-755255,-1.606050358,Cu3OF5
mp-649084,-0.379676121,Sr2B8Ru7
mp-559160,-2.092942816,NaSmSe2O7
mp-978263,0.270080568,MgU
mp-754992,-2.797100482,LuTlO2
mp-33526,-1.053880012,LiBiS2
mp-551675,-2.95939765,Li3UO4
mp-11285,-0.486196839,Ca3(GaNi)4
mp-777680,-3.166498575,Li2VF5
mp-19416,-3.081585534,BaDy2NiO5
mp-30807,-0.374003726,ZrNi4Sn
mp-569398,-0.880019745,La4Al5Br2
mp-2318,-0.442835473,Nb2C
mp-560445,-3.799637476,SrEr2O4
mp-976373,0.565456648,K3Y
mp-766173,-1.773551693,Sr(RhO2)2
mp-555229,-1.009770286,H5CNO2
mp-1020797,-3.028817481,Y(PO3)3
mp-766059,-1.892162133,Na3Mn8O16
mp-3857,-3.31401386,Ba3(PO4)2
mp-622636,-0.318807386,TmInCu2
mp-558893,-2.263921391,SbCSF11
mp-32027,-2.627264413,Li2Mn3(P2O7)2
mp-409,-1.149286935,NaS
mp-698457,-1.569413066,NaLiH4C2O5
mp-686040,-3.559823922,MgU2O6
mp-985303,0.155501536,Ac3Th
mp-759416,-2.513275801,Li3Sb(PO4)2
mp-504801,-3.080475997,ErHO2
mp-694897,-1.315891923,Cr6PbO18
mp-5692,-2.598834809,TbRhO3
mp-28729,-0.565595786,Ag25(BiO6)3
mp-2436,-0.239793123,EuZn5
mp-29144,-2.645859239,KTe2F9
mp-849529,-1.415781794,MnH12S2(NO5)2
mp-720657,-2.226681371,Na7Li4Yb5C12O37
mp-1012835,-2.367523288,SmCu(WO4)2
mp-505697,-2.276611969,Bi6P4PbO20
mp-19788,-0.799396471,Tb2Ge2Ru
mp-758891,-2.313641616,Li3CuPO5
mp-15617,-0.424943047,Cr5B3
mp-569246,-0.190706741,Tl2HgGeTe4
mp-21330,-0.777772382,EuAgAs
mp-752684,-3.714304536,BaTm2O4
mp-510055,-2.193431535,Co2B2O5
mp-23214,-2.788202492,CaCl2
mp-553890,-1.808384839,CuSb2H12(O3F4)2
mp-569952,-1.735341179,K2CuCl3
mp-1317,-0.184117171,CoSb3
mp-31022,-0.84496342,Hf2Si4Ru3
mp-676663,0.077908657,ZnSnSb2
mp-978851,-2.297652676,SrAsO3
mp-4681,-2.844192,NaNbO3
mp-542680,-0.228969105,Na3In2Au
mp-27607,-0.263755957,Bi4Se3
mp-35687,-0.234581553,Be(CN)2
mp-554218,-2.998766873,Ti4P6PbO24
mp-867332,-0.605082009,Cs2Mn(PSe3)2
mp-504106,-2.660008552,LiTiPO4
mp-1083,-0.401306224,NpB2
mp-636264,-0.460781539,La(CuSn)2
mp-569691,-0.129598142,YbCu9Sn4
mp-9348,-3.579989557,KRb2ScF6
mp-510580,-0.635494956,NdNiSnH
mp-514,-0.209844638,HfZn2
mp-4086,-3.040477262,La2Sn2O7
mp-559223,-1.683901993,GdH6C4NO9
mp-504711,-1.168508214,CoCuO2
mp-1673,-0.858474565,Tb5Ge4
mp-568340,-0.525762562,Ho5NiPb3
mp-849286,-1.55563499,Ba(GaS2)2
mp-504727,-2.55329946,EuBrO
mp-1799,-0.214757612,TaCo2
mp-17123,-0.452984094,Si2Os
mp-15919,-2.400556085,BeAgPO4
mp-2225,-0.284481816,Be2Fe
mp-542817,-0.519719033,UPt
mp-557259,-2.659155661,MoF6
mp-4198,-1.431022527,Ag3PO4
mp-557941,-2.009681111,K4AsH5S3O16
mp-2589,-2.023792785,MgO2
mp-975052,0.381011902,Rb3Al
mp-15960,-2.509798194,Li5AlO4
mp-567527,-0.194227564,Eu(Al10V)2
mp-756288,-1.512925563,Li3Cu4SnO8
mp-770473,-1.568287992,CaLaI5
mp-642273,-0.399270378,U6Fe16Si7C
mp-541656,-0.64168535,AuCl2
mp-21085,-0.570752834,PuPd3
mp-540850,-2.834491786,TlPF6
mp-866274,-0.344331684,CeCdHg2
mp-5168,-0.309423077,AlSiP3
mp-631382,0.538443253,YMgCu
mp-690534,-2.027680388,K3FeF3
mp-764058,-2.567890082,V4O7F5
mp-22631,-0.055903306,Co2N
mp-778924,-1.372921144,ZnSeO4
mp-3245,-0.103389832,SnP7Au3
mp-755457,-0.912813227,Li2Fe2S3
mp-29833,-1.471526936,Bi2(SeO3)3
mp-21065,-0.108398599,SiP2
mp-631312,0.576338413,InP2Pb
mp-8790,-2.300651171,Ba2CuO3
mp-36529,-2.199849344,Na3(WO3)10
mp-862974,-0.591030913,PmZnAu2
mp-18994,-1.51544208,CsMnO4
mp-775203,-2.890061169,Li8ScFe7(SiO3)16
mp-574339,-0.377406338,Y2Ni7
mp-17464,-2.764766785,SrGeO3
mp-1009545,-1.818433481,PaN
mp-7506,-0.316202816,Cr5Si3
mp-567474,-1.763932155,Li2CrCl4
mp-19487,-3.086183659,Ba2Mn(PO4)2
mp-677072,-0.624331033,Ca(InTe2)2
mp-11284,-0.519627995,CaGa2
mp-677081,-3.121252016,SrLa11Mg3Ga9O34
mp-663,-0.850266709,NdGe
mp-765753,-1.403920132,NaMnO4
mp-707938,-1.101391302,MgH18C4SN8O9
mp-771240,-3.187330942,La2P4O13
mp-12985,-0.335901091,PrCo2B2C
mp-1508,-2.313693729,LaS2
mp-721330,-3.127995264,Rb14Na3Al17Si31O96
mp-643905,-0.768989198,Sr(H2N)2
mp-760781,-2.388261905,Li2AgF4
mp-28420,-1.887809716,SrH4O3
mp-631557,0.848223049,Sn2BSe
mp-998603,-1.29219701,RbPbBr3
mp-27698,-3.989640329,Y6UO12
mp-2339,-0.649536055,Ti3Pt
mp-570140,-0.125180686,AuBr
mp-7305,-4.249058563,SmZrF7
mp-758861,-2.606535622,Li3AgF4
mp-510719,-0.247354601,SrGaH4
mp-10201,-0.13883517,Ge2Mo
mp-31317,-1.158255932,La3PbI3
mp-1009539,1.388981723,OsC
mp-555487,-2.117719759,SnO2
mp-4336,-1.314461275,LaPPd
mp-23256,-0.845111961,BCl
mp-30619,-0.210795598,Zr3Co
mp-559768,-3.806371972,La2Ti2O7
mp-21249,-0.583524085,YMnSi
mp-1009885,-1.551731171,ZrN
mp-677732,-3.188028399,NdTi2CdO6F
mp-758371,-3.225992023,YbAlO3
mp-30778,-0.382592663,Mg5Rh2
mp-1007855,-0.074113495,FeNi3
mp-17830,-0.249742076,Rb3Ge4Au
mp-769201,-1.590998987,LiCuHCO4
mp-975887,0.011562491,PrNd3
mp-764414,-1.42036766,K2Li2NiO4
mp-14691,-2.926818415,NaEr(PO3)4
mp-765316,-1.74767737,Li3Ni2(CO3)4
mp-756313,-1.061525852,CaPbI4
mp-13993,-1.594304907,Ti3NiS6
mp-26649,-2.570688551,Li2SnP2O7
mp-1020361,-3.245960756,MgSiO3
mp-631339,1.264225293,Na2LiTa
mp-706444,-1.876281071,Zn3P2(H2O3)4
mp-17959,-3.230959937,Nd2SiTeO4
mp-20554,-0.422991287,InAgSe2
mp-20109,-0.597469453,Th2NiB10
mp-19817,-0.535982038,Y3InC
mp-753737,-1.225486546,Li3CuS2
mp-542565,-0.891863531,Nd3Sb5Pd6
mp-757658,-2.694932354,LiTi(PO3)4
mp-22786,-0.691590788,ThNiSn
mp-989627,-0.586485875,SrTcN3
mp-16921,-0.40542129,KNa4GeAs3
mp-13431,-0.390866572,Dy2AlCo2
mp-774276,-2.27406489,Li2Cr3SnO8
mp-558597,-4.017236247,NaLiY2F8
mp-704626,-1.315055378,FeAg(SeO3)2
mp-689963,-2.434363692,CrPO4
mp-757220,-1.225780192,LuH6(ClO5)3
mp-19114,-2.559577387,Ca2NiWO6
mp-2215,-0.264452665,ThHg2
mp-560198,-1.53285373,ZnTe6O13
mp-973936,0.134289352,NiI
mp-569974,-0.989359772,Nd(NiP)2
mp-28027,-2.497126116,AsF3
mp-557330,-3.089268468,Sr2B5ClO9
mp-22963,-1.046213335,K2TeBr6
mp-28924,-0.432018808,Ga8BIr4
mp-768214,-1.201954466,Li3FeS3
mp-558149,-3.13089713,BF3
mp-768360,-1.03326191,Li3(FeS2)2
mp-22233,-0.619627497,Zr4Co4Ge7
mp-30565,-0.254768733,Th7Co3
mp-1620,-0.343274177,Si2W
mp-13811,-3.478314361,Ba2MgUO6
mp-10624,-0.416862612,USbRh
mp-755949,-1.866877135,Ca4I6O
mp-865,-0.409067761,CaB6
mp-14791,-0.036455002,Ge2Te5As2
mp-997588,-3.599354778,La8Al7BO24
mp-20496,-2.088957099,Ga2PbO4
mp-779249,-3.805678597,Gd3TaO7
mp-17048,-1.368145963,Rb2WS4
mp-6119,-3.380314841,Na2Nd2Ti3O10
mp-657344,-2.762586993,Na12B26O45
mp-975384,-1.455603932,RbBiO3
mp-1020014,-2.837141132,Li3B11O18
mp-568501,-0.466783802,SrCdBi2
mp-779462,-1.278016255,Sb2(SeO4)3
mp-1367,-0.152680335,Mg2Si
mp-19447,-2.308235225,Cs2NaVO4
mp-778744,-2.468544719,Li2MnNi(PO4)2
mp-771031,-3.938031568,Lu2TiO5
mp-976221,0.559584038,K3Sm
mp-14019,-0.240932553,NiB
mp-9843,-1.000962585,Sr3(AlP2)2
mp-19225,-1.353092589,FeAgO2
mp-768990,-1.44886389,Li7NbS6
mp-863740,-0.375825001,Pm2IrRu
mp-12766,0.066495716,Mg13Al14
mp-685168,-3.456686871,BeF2
mp-639558,-3.27034439,SiO2
mp-562541,-1.439279556,Cs2Na3TlO4
mp-24052,-0.490557418,CaMgNiH4
mp-782654,-2.495082152,Li5Mn6(BO3)6
mp-2614,-0.385374677,HfAl3
mp-773252,-1.140276603,Li2(NiO2)3
mp-754597,-2.548444102,LuTlO3
mp-20828,-0.093114767,Pt3Pb
mp-779662,-1.114678732,Zr5Sn3O
mp-571235,-0.927667855,ZrI4
mp-706225,-2.827297868,Sr3LaMn2(WO6)2
mp-29466,-1.414035293,CeSi3N5
mp-863654,-0.396319114,Pm2CdSi
mp-2088,-0.457753072,CeAl2
mp-1157,-0.337524963,TaNi2
mp-559748,-2.612696162,NdGaGe2O7
mp-21895,-0.123415816,Na15Pb4
mp-754224,-1.723731529,BaSr2I6
mp-971960,0.11867521,Zn3Os
mp-11275,-0.390746668,Be2Re
mp-2716,-0.368986952,TiNi
mp-626197,-1.444229926,Sr(H8O5)2
mp-541667,-0.761843919,Nb(SeBr)2
mp-1009014,-1.052075363,LiCuO
mp-541365,-0.597619221,LiEuH3
mp-554883,-2.109227523,Al(HO)3
mp-5486,-0.402601977,Ca(CuSi)2
mp-776509,-3.192266546,Sr2Ti6N2O11
mp-762019,-2.154837719,LiV(CO3)2
mp-560901,-0.821012797,PdSCl
mp-865890,-0.28058469,Li2CaIn
mp-11713,-0.202361923,SiC
mp-28218,-1.432411055,TlCdCl3
mp-1019530,-3.24354155,Ba2P2O7
mp-3194,-0.551628606,Tb2Al3Si2
mp-22290,-0.434092216,Mn6Si7Ni16
mp-15624,-0.860292993,Sr2Sb
mp-850981,-2.754661769,V6O5F19
mp-12724,-0.20478776,SrZn
mp-567776,-1.43767953,Cs2AgAuCl6
mp-4075,-0.811894115,TbZrSb
mp-27819,-0.235732143,Ag3O
mp-21847,-0.251709711,KMnAs
mp-8313,-2.119910882,Cs2Li2GeO4
mp-765142,-2.33591241,LiCoSiO4
mp-976775,-1.412830702,NaMgO3
mp-6198,-2.992087225,SrGa2(SiO4)2
mp-30180,-0.249588441,Al4Mo
mp-7980,-3.411076763,Ba3SrTa2O9
mp-22793,-0.161824432,AlFe3C
mp-754031,-3.153844978,YBrO
mp-10087,-0.53914736,CeScSi
mp-973557,0.1576535,FeAu3
mp-557158,-2.956841055,CrMoF6
mp-557176,-3.298346416,Ba5B4(O5F)2
mp-561154,-3.200790932,La(BO2)3
mp-998745,-2.384386585,TlZnF3
mp-561181,-3.273922783,SiO2
mp-6969,-0.496445799,Sc(CuSi)2
mp-769397,-2.439077777,MgSO3
mp-763433,-3.023750574,Li2MnF4
mp-11468,-0.429148859,NdHg2
mp-541204,-1.898719215,As2S3(NF6)2
mp-560638,-3.399561425,Na2U2Si(O4F)2
mp-776770,-2.496678803,LiFeF5
mp-555014,-2.979123855,Rb2MnF5
mp-770883,-1.523337429,K4Co2O5
mp-14214,-0.969890155,Ba4SiP4
mp-772170,-1.517222929,CaLaI5
mp-772673,-2.23616633,LiNiPO4
mp-685068,-1.3483222,YbBr3
mp-1019968,-2.954687312,LaZn(BO2)5
mp-569859,-0.230194868,MnTl2SnTe4
mp-3852,-0.635547204,Tb3(CuGe)4
mp-1020144,-2.898277688,Na2Be4B4O11
mp-557637,-0.941080112,Hg2SeO3
mp-13264,-0.240623523,Sm2Mo2C3
mp-779472,-2.539362094,Li5Cu(PO4)2
mp-973979,-0.240653893,LiFePd2
mp-985572,-1.516012652,LiAg(CO2)2
mp-3301,-0.944716796,Dy(SiPd)2
mp-558500,-0.96812522,K2Ag2GeS4
mp-695043,-1.741844348,K4PH5Se3O16
mp-554252,-3.130854082,K2NaCrF6
mp-850949,-2.654491984,LiMnSiO4
mp-20856,-0.56140021,Eu(FeP3)4
mp-707840,-1.767624584,Na2Si(H5O4)2
mp-849727,-2.870285392,La2Nb2N2O5
mp-11511,-0.717208056,LaAlGe
mp-19083,-2.393129072,NaVO3
mp-972456,0.364827058,Sm3V
mp-976267,-0.516527647,Si12HN8
mp-554259,-2.795252452,SrAgB7O12
mp-977393,-0.358724623,LiLu2Ru
mp-560889,-3.233875189,Ba6Na2Si4O15
mp-971662,0.062770961,Si
mp-4194,-1.130200329,Zn(CrS2)2
mp-761748,-1.722877668,Li2CrCo3O8
mp-1008631,-0.01970335,VCoTe
mp-761944,-1.638462584,Li2FeCo3O8
mp-19415,-2.537831976,Er(FeO2)2
mp-3870,-3.317217501,Sr2Nb2O7
mp-649683,-2.537700504,Fe(PO3)2
mp-23125,-1.907668085,K3NaFeCl6
mp-1019559,-3.261576441,Ca2B2O5
mp-777448,-3.069457402,Li2VF4
mp-8280,-0.947760714,Ba(MgAs)2
mp-973571,0.010679787,Lu
mp-20108,-0.426986177,CaIn4Pd
mp-25420,-3.037024641,LiTiPO4F
mp-753901,-3.15278624,Er2CuO4
mp-553948,-0.555408524,Tl4Hg3Sb2(As2S5)4
mp-604304,-0.667195585,HgH16(Br3N2)2
mp-15809,-0.380402382,Cr2B
mp-8219,-0.660316875,Zr(CuP)2
mp-554847,-1.553929461,SbP(Cl3O)2
mp-768952,-1.694579665,Bi2B2O7
mp-976129,-0.31015503,PrErZn2
mp-756084,-1.732706491,BaNa4O3
mp-1890,-0.492318182,BMo
mp-19249,-1.893311158,YbNiO3
mp-16066,-0.778959293,Yb(Ni2P)2
mp-1509,-0.798558133,Sn2S3
mp-29590,-2.657801513,Sn2OF5
mp-866150,-0.140968997,LiSm2Os
mp-554351,-1.648177026,SrHg2(ClO)2
mp-22803,-1.009951457,Cr2CuS4
mp-571485,-0.919471452,Tm(SiPd)2
mp-999192,-0.45380711,SiNi
mp-972235,-0.56976858,Tb3FeB7
mp-558258,-2.250989191,Eu2I2O
mp-29778,-0.72672393,Nd4Ge7
mp-15780,-0.58941078,MgPPt5
mp-22017,-0.573754695,LaIn2Ir
mp-14977,-3.180569394,Na3Y(Si2O5)3
mp-558022,-3.143033318,SrBPO5
mp-2287,-0.806571385,SiRh
mp-505535,-0.148358095,B8Ru11
mp-504836,-1.855879396,YMn4(CuO4)3
mp-771136,-2.10968818,Ho2(SeO4)3
mp-600061,-3.273325658,SiO2
mp-18875,-2.574689019,MgWO4
mp-758523,0.087174024,AgHg
mp-676365,-2.965180411,Li2TiO3
mp-568865,-0.875450876,ZrTe
mp-864635,-0.736850569,Ag2Cl3
mp-567628,-1.793629357,Rb2LiDyBr6
mp-977589,-0.306612099,Tm2TlCd
mp-842,-0.941023888,CaPt2
mp-684617,-1.539755066,Bi2O3
mp-774868,-2.494742493,ZnP4O11
mp-756117,-2.437507454,Li2TiTeO6
mp-778377,-4.236281457,Ba5Y3F19
mp-652695,-0.901530014,Re(SeCl6)2
mp-863250,-0.202913936,TaMn2Ge
mp-11500,-0.03656236,MnNi
mp-568683,-0.364754433,La16Al13
mp-773516,-1.644387833,Li3NiO3
mp-542012,-1.551872234,Rb4Hf3S14
mp-504811,-1.525490892,Rb2Pb4O7
mp-12309,-3.674397158,Cs2NaAl3F12
mp-866010,-0.570023028,CaCdAu2
mp-764484,-2.610669941,LiMnV(P2O7)2
mp-30763,-0.421874568,LiPd2Pb
mp-16451,-2.019978829,BaPr2CoS5
mp-755948,-3.855579526,Tm2TiO5
mp-694933,-2.459197693,MgTi3Pb5WO15
mp-10780,-1.72461234,RbSmSe2
mp-770525,-2.140690827,Na6Mn2C4SO16
mp-27341,-0.54983719,BH4N
mp-758332,-3.772211547,CaGd4O7
mp-510535,-2.84795236,CsB5O8
mp-6764,-2.356971009,BaSi2(NO)2
mp-707138,-1.613067927,Ag2PHO4
mp-772843,-2.535897826,KSiPCO7
mp-1019796,-2.629871078,K4P2O7
mp-567849,-0.493998531,Er2Al3Co
mp-8291,-3.996939578,BaTiF6
mp-672986,-2.145757945,SnPO4
mp-779641,-1.651580991,LiCu5(PO4)2
mp-18764,-2.979407724,Ba2SrWO6
mp-23043,-1.154203766,RbPb2Br5
mp-14316,-2.029947756,KPr(SeO4)2
mp-558227,-3.021893648,K2RbMn2F7
mp-867261,-2.797120925,RbSrCO3F
mp-555408,-1.573985387,SbS7IF6
mp-866201,-0.084290333,Ti3Bi
mp-643253,-0.641944877,Ba2H6Pt
mp-637582,-0.34136091,Rb2BaPt2(CN)8
mp-20265,-0.493300172,LiIn2Pt
mp-866204,-0.472836533,Pm2SiHg
mp-9209,-2.063561637,In2(SO4)3
mp-30209,-0.432655525,LiBH4
mp-6671,-3.303573205,Sm4Si2S3O7
mp-752496,-3.412422063,TiOF
mp-971813,-0.653156973,TmB4Ru
mp-974581,-1.22359196,ReBiO3
mp-780118,-1.23006051,Na4Ni2O5
mp-867649,-3.140853664,LiTi(Si2O5)2
mp-849472,-2.399242796,Li5Co7O3F13
mp-5496,-0.381425866,Al5C3N
mp-10615,-0.876298021,BaLiP
mp-542148,-1.79117558,Sb2N5F11
mp-27322,-2.186311211,Nb2Te3O11
mp-4964,-1.21810365,YSbPt
mp-864629,-0.36679259,Pm2TlCd
mp-694856,-1.708568465,V2Bi8O17
mp-768049,-1.956612459,Na3Ni2P2(CO7)2
mp-707392,-2.041094688,Mg3B2P2(H9O10)2
mp-1002124,-0.301015714,HfC
mp-19520,-2.839549596,NdNi(BO2)5
mp-5323,-3.610185803,CeAlO3
mp-976106,0.012737645,Hf3Tl
mp-754345,-3.060213296,LiTaO3
mp-9999,-0.473672229,Ni(BMo)2
mp-19251,-2.108189639,RbLiCrO4
mp-4120,-0.817336457,CaCuAs
mp-755401,-1.3618316,Na3CuO2
mp-2940,-3.54154015,LuPO4
mp-977559,-0.771114714,Dy2MgGe2
mp-775295,-2.240081779,Li2MnCr3O8
mp-754459,-2.033569161,BCl(OF2)2
mp-32826,-2.447058127,Dy2S3
mp-1108,-0.651918938,TaB2
mp-542132,-0.633617335,YbCuAs2
mp-624218,-0.904235614,P3SN4Cl5O
mp-559417,-3.158184061,LaB2ClO4
mp-775311,-1.688962103,LiCuSbO4
mp-779533,-2.596559006,Ba3(BrO)2
mp-643651,-0.276012903,Rb3ZnH5
mp-753197,-3.748414706,HfTiO4
mp-867175,-0.777612931,SmAgAs2
mp-605663,-0.465289559,AlPd5
mp-772523,-3.321606083,Ba8LiTa7O24
mp-779906,-3.068901577,Ca3WO6
mp-601823,-0.357587524,TaTe2
mp-754993,-1.321015972,SbSeO5
mp-5702,-0.559665598,Cu3SbS4
mp-638731,-3.154817815,LaCO3F
mp-774702,-1.900277621,Li3BiO4