id,formation_energy_per_atom,pretty_formula
mp-8096,-3.186141022,ZrCuF6
mp-850899,-2.560479464,Mn3OF8
mp-849609,-2.445296142,Li2Mn3(BO3)3
mp-561176,-2.707898987,Sb2POF13
mp-555871,-0.964971421,Na2CuSbS3
mp-6896,-0.284569404,Rb2NaCo(CN)6
mp-28719,-2.224070606,Ba(AuF4)2
mp-676646,-3.778049197,Tb2Zr8O19
mp-11372,-0.373456155,ErSn3
mp-25317,-1.572566615,Li3(CuO2)2
mp-1407,-0.387798281,Rh3Se8
mp-510623,0.050977718,Fe3C
mp-561447,-2.893946677,K3AlB8O15
mp-27147,-1.397772471,Rb3BiBr6
mp-5908,-1.786248042,CeAsS
mp-541601,-2.933911535,KPr(PO3)4
mp-777268,-1.592596505,Na(BiO2)2
mp-504884,-0.453494949,Cu3AsS3
mp-773205,-2.512994569,LiMnB2O5
mp-542995,-0.434800866,Nb6Fe16Si7
mp-1556,-1.087996943,PuTe
mp-557744,-3.171285945,NaUBO5
mp-3048,-1.640435909,U2SeN2
mp-570451,-0.420409787,Nb2Te3
mp-558772,-1.644025891,Rb2ZrS4
mp-560045,-0.610674381,H5CSN2Cl
mp-571189,-1.158263082,NaHf2CuSe5
mp-30219,-1.878873473,KGaCl4
mp-18762,-1.50191929,Na4CoO3
mp-5572,-2.219232637,Ho2Te5O13
mp-755141,-3.179474531,NaHoO2
mp-779087,-2.4902109,Li3Mn2Fe(BO3)3
mp-31455,-0.237911927,VSbRu
mp-24051,-1.657517911,ErHCl
mp-976365,-0.207528788,Nd3Au
mp-1008755,0.181258239,SrB2
mp-8977,-1.307653512,Ca2PN3
mp-757817,-2.719005824,Li2Nb(PO4)2
mp-8470,-2.971194808,NaPrO2
mp-556120,-1.967079399,RbTl(SO4)2
mp-758953,-0.620835537,P2H12BrN7
mp-780492,-2.275454975,Li4VP6(H4O11)2
mp-6361,-3.074574488,NaSr3NbO6
mp-555076,-3.039779136,KNaSnF6
mp-765775,-2.476453698,Li2V2SiGeO10
mp-973004,-0.047041519,ScRu3
mp-8672,-2.999361899,La2PdO4
mp-12524,-0.032505766,Al2W
mp-29314,-1.221738952,RbVBr3
mp-582023,-0.526862912,La21Fe8Sb7C12
mp-5676,-0.369442,MnSbPt
mp-555077,-2.065914271,Sn2IF3
mp-2120,-0.332163883,HoAg2
mp-721300,-2.800139463,Ca2B5H2ClO10
mp-583740,-1.167898391,Zr7P4
mp-3541,-0.72179577,CeNiGe2
mp-13542,-0.51661424,ZrGeTe4
mp-760411,-1.790905929,Bi2CO5
mp-21497,-1.941058876,Pb2SO5
mp-778723,-2.448932859,Li3MnFe2(BO3)3
mp-776281,-2.348513933,Zr2N2O
mp-31412,-0.831339855,PrSnAu
mp-3715,-0.220013449,CoGeTe
mp-570076,-0.307826079,Tl2CdSnTe4
mp-762050,-2.038349907,Li4Cu7(PO4)6
mp-12174,-0.539138922,HfNi3
mp-12787,-3.278911686,SiO2
mp-8449,-2.505079318,Rb2Li2SiO4
mp-5584,-0.577048508,Ga(MoSe2)4
mp-643069,-1.623212291,Li2HIO
mp-22214,-2.504720913,Rb2RhF6
mp-4276,-0.618984328,NaSi2Pd3
mp-20868,0.004900398,Fe2W
mp-1008394,0,Cl2
mp-29393,-3.243835977,UNb2O7
mp-772739,-1.229463041,Fe2CoO6
mp-8226,-3.129682513,ThNF
mp-755389,-3.189093291,CaEuO2
mp-1014252,-0.966638691,Hf3ZnN
mp-29988,-1.246891863,CsPd2Cl5
mp-766328,-1.458045277,Ag7Sb9O25
mp-570673,-0.285317953,ScNi5
mp-1007906,-0.420635764,ErH
mp-8388,-2.554366456,K2CuF4
mp-20378,-0.666760248,CaInAu
mp-976751,0.146299396,Nd3Zr
mp-581968,-0.846620931,Tm2Pd2Pb
mp-780200,-2.131340039,LiFePH2O5
mp-571212,-0.356138781,Yb5Ag3
mp-19334,-2.144514915,Na4WO5
mp-2684,-0.659413157,TbGa2
mp-560019,-2.423327308,K2Ge3(BO5)2
mp-2667,-0.306996648,CsAu
mp-13956,-0.108716483,Ag2PSe3
mp-677335,-2.61310218,GaPO4
mp-552802,-2.756622693,ErU2S3O2
mp-18678,-0.822498777,Nd2Ge5Rh3
mp-934,-0.231059525,LiTl
mp-961663,-1.044984573,SrTePd
mp-865905,-0.682923704,YbPmRh2
mp-777181,-2.849085643,Ti2Nb(PO4)3
mp-1018076,-0.106648888,Ga2BiAs
mp-689943,-2.120210284,CoPO4
mp-510377,-0.469647767,EuBRh3
mp-23568,-0.898438311,XeN2(OF4)2
mp-34459,-2.420277427,Ba(NdS2)2
mp-556986,-3.283747092,Er2B2Cl2O5
mp-22626,-2.098956881,OsF6
mp-18383,-1.561988652,K3NbS4
mp-755357,-2.824874825,NdAsO4
mp-752706,-3.829635294,CeZr11O24
mp-3191,-0.680226455,Ho(FeSi)2
mp-862759,-0.325598249,PrMgZn2
mp-779257,-2.082921502,Li3Cu3(PO4)2
mp-763752,-1.733441303,Li3Mn2(NiO4)2
mp-1876,-0.73034271,SnS
mp-542772,-1.50997453,CsAgCl2
mp-1013712,-0.264014506,Ba3SbP
mp-31140,-0.27961542,BaBiAu
mp-676306,-1.137159614,Dy7(CuTe4)3
mp-764888,-2.386212362,Li3Fe4(BO3)4
mp-18919,-1.108806644,CoPdO2
mp-772060,-2.228681305,Li3NbFe3O8
mp-773599,-1.907325161,NaSb3O8
mp-757388,-1.519424301,PH6NO4
mp-778149,-2.888538519,Li6Ti3P8O29
mp-760361,-0.590315587,H3NCl
mp-10302,-2.794530771,Ba2ScIrO6
mp-973114,-0.405526281,HoLuRu2
mp-768149,-3.019528588,DyInO3
mp-975528,-0.360037254,NdDyTl2
mp-24412,-0.324962026,K2NaAlH6
mp-879,-1.608165581,La3Te4
mp-625548,-1.384753892,Cd(HO)2
mp-570351,-0.271364881,Na2Sn3Au
mp-850935,-1.654273532,CoOF
mp-601322,-0.645656887,Ba6Ge5N2
mp-776,-0.337829666,LaCd
mp-973896,0.528942498,Ni3I
mp-20727,-1.923478234,Sb2PbO6
mp-30738,-0.167998127,LiIr3
mp-3501,-0.297727604,Er(Fe2Ge)2
mp-561166,-2.58865263,Na2ZrGe2O7
mp-888,-1.093137808,CaAs
mp-753803,-1.956674217,Cs2CaO2
mp-225,-0.262028243,ErZn5
mp-764781,-1.581224299,Li3(CoO2)4
mp-30387,-0.598478389,HoAu4
mp-569531,-1.257782318,Rb2CuBr3
mp-19006,-2.00386134,MnO
mp-20941,0.014062179,UIn3
mp-1018025,-2.727202664,LuAgO2
mp-542138,-0.510017444,Ca3Si2Ni3
mp-768301,-3.309319722,Ho2B4O9
mp-768231,-2.949831908,YHO2
mp-753318,-3.486408879,DyBO3
mp-779404,-2.086116105,Li3Cr2(AsO4)3
mp-7129,-1.342858223,Rb2Ti(CuS2)2
mp-2319,-0.525430156,P2Os
mp-27140,-1.995596041,K2Sb4O11
mp-1013529,-0.136148611,Sr3N2
mp-505034,-1.218680705,Cs2MnS2
mp-21008,-0.290054189,Ni3Ge
mp-976772,0.192508303,NiAg3
mp-505431,-0.565631958,K2LiInAs2
mp-675759,-3.698806047,Tm10Ti6O27
mp-11750,-0.654770905,Ti6Si2B
mp-24214,-2.197252788,KPH3O4F
mp-978264,0.501156934,MgW3
mp-755798,-2.864213733,ZrPbO3
mp-23262,-1.657594393,Bi2O3
mp-705295,-2.211951424,LiNiP2O7
mp-36836,-2.461993341,Sr4Ru2O9
mp-19956,-2.884303754,Ba2InO3F
mp-505772,-1.804505881,Rb2NaH5(CO4)2
mp-10969,-0.093336075,CdCN2
mp-582828,-1.531094499,La3Ge3Cl2
mp-1216,-3.652172914,YbO
mp-600186,-1.430688473,Cs2MnBr4
mp-773514,-1.675640866,Li2CoO3
mp-19277,-2.183262536,VSO5
mp-27355,-2.230052553,Pb2OF2
mp-558362,-2.890382212,CaMgGeO4
mp-998307,-0.929736449,CsPdBr3
mp-756639,-3.278607498,Li2NbOF5
mp-772435,-2.724256174,Li3Al2FeO6
mp-21108,-0.001738592,U6Fe
mp-6676,-2.889695564,Sr2HoRuO6
mp-560174,-2.58255448,NaZn(PO3)3
mp-541081,-2.161601764,NaMg2H3(SO4)2
mp-850409,-2.454733698,Fe2OF3
mp-17481,-3.269444088,Mg4Ta2O9
mp-29892,-1.981590911,LiSb3O8
mp-2895,-3.239900821,Mg2SiO4
mp-758916,-1.729612167,Ga2P3H12(NO4)3
mp-570870,-0.43251665,Hf5Sb9
mp-21066,-0.770826342,TaMnP
mp-780353,-2.344730091,Na6B4Sb2SO16
mp-19417,-2.818023611,TiFeO3
mp-643276,-0.439938143,LiMg2H7Ru
mp-3802,-0.573984815,Ta4AlC3
mp-23493,-1.357225829,Ce(IO3)4
mp-695316,-1.972373157,Ca2AlH10BrO8
mp-734,-0.500660744,LaHg
mp-7349,-0.478606899,Ba(BRh)2
mp-774,-0.109744866,CaNi5
mp-850957,-2.529414159,Na6Ti2O7
mp-28257,-2.134806043,SOF2
mp-37263,-1.488718315,Ca(NdTe2)2
mp-999002,-0.328931978,TiFe2As
mp-752849,-2.559228465,Y2Pb2O7
mp-22645,-0.894856502,PrSnPd
mp-6571,-1.987610499,BaCuAs2O7
mp-504790,-0.677477972,LiYSn
mp-996960,-0.6091655,AgNO2
mp-574620,-1.421146228,CsYZnSe3
mp-972077,0.401726604,TcGe3
mp-20336,-0.125454205,USn3
mp-752989,-3.373686109,Ti8O13
mp-1018665,-1.589219931,CeSe2
mp-30252,-0.256699131,Na10CaSn12
mp-6704,-2.979773515,BaNd2CuO5
mp-12241,-0.945333473,Ca11Sb10
mp-777474,-2.883366272,LiFeF4
mp-766336,-1.605685466,Ba6Ca11I34
mp-31309,-0.909153986,RbInSe2
mp-697855,-2.57710091,Li2Cr3(P2O7)2
mp-674367,-1.855789495,Re6Pb5O19
mp-6031,-1.020141165,Li16Nb2N8O
mp-972246,-0.407117566,Tb2ReC2
mp-558466,-1.678130656,AsS(BrF2)3
mp-865916,-0.398691665,TiVRe2
mp-616559,-1.309501076,Ti2S
mp-17213,-1.76409909,Cs4SnO4
mp-21509,-0.487745897,LaMgGa
mp-985439,-0.876676296,BaPAu
mp-27556,-2.85264081,CsNbO3
mp-22690,-3.136607119,TbCdF6
mp-5124,-0.118833762,MnNi2Sb
mp-28523,-1.303989767,Li2Ta3N5
mp-1018828,-2.399837829,NpSeO
mp-557691,-3.868584506,La2O3
mp-776023,-2.537928648,CdSiO3
mp-755318,-2.962514745,ScHO2
mp-989608,-1.814493132,Cs2NaAsCl6
mp-755585,-0.836478811,LiAgO2
mp-771261,-1.661065715,Mn3FeO8
mp-867689,-0.886066875,LiCuS
mp-28102,-2.252076499,Ba3Te4O11
mp-571262,-0.421638178,CaRh2
mp-862777,-0.46909532,TmPaRu2
mp-707732,-2.10881352,Na4ZnP6(HO2)12
mp-720312,-2.473714919,Na2B5H3O10
mp-866140,-0.657946764,TiGaPd2
mp-690544,-2.136736311,Ga2FeO4
mp-557260,-2.829282972,RbSb2F7
mp-26952,,Sb(PO3)4
mp-2334,-0.244950605,DyCu
mp-770884,-2.078130061,Li2SnCSO7
mp-761540,-1.348904374,Co3SbO8
mp-998430,-0.930313771,CsInI3
mp-554142,-1.716671813,Ge(TeO3)2
mp-616564,-1.26644554,RbPbIO6
mp-3788,-3.48414338,SrAl4O7
mp-1009206,0.308362803,MnSn
mp-20404,-0.833869669,Sm2InPd2
mp-29959,-0.231916789,TlBSe3
mp-6929,-2.532741952,Ca2As2O7
mp-768092,-2.513280702,LiVSO4F3
mp-10191,-1.682989919,Lu2MgSe4
mp-771043,-3.866651765,Y2Zr2O7
mp-541537,-2.485677684,K2ZnSiO4
mp-973748,-0.122033923,LiIn3
mp-760507,-1.410516465,AsRhO4
mp-976713,-2.487417404,HoH2ClO2
mp-570084,-0.212878977,Hg3AsSe4I
mp-971739,-0.364706761,ZnCuPt2
mp-21011,-1.193097989,Ce4As3
mp-570959,-1.514674483,Dy2CdSe4
mp-554012,-1.765062671,SClO2F
mp-555462,-2.10162077,Al(HO)3
mp-560717,-1.083054082,Ag2CO3
mp-558696,-1.254070326,CuTeO3
mp-582406,-0.389822572,Gd2(Zn2Ge)3
mp-30443,-0.286774952,Be17Ru3
mp-773079,-1.792328956,AlZnH16N(OF)6
mp-1018043,-0.005681089,Ti2InCo
mp-862932,-0.221882222,ThInAg2
mp-569385,-0.636881316,DyAl2Ni
mp-23985,-1.146643018,LiH6BrO7
mp-1002222,0.958062444,TlN
mp-505525,-0.190668073,Nb4Zn2C
mp-778503,-2.748876415,Ti3Fe2Sb(PO4)6
mp-583800,-0.064551621,Zr2Cu
mp-30454,-1.0268342,ErBiPt
mp-971767,0.106517456,ZnHg3
mp-768877,-1.989790113,Sn2Ge2O7
mp-27386,-1.031288383,TlHg5Cl11
mp-1006146,-0.54637882,Eu(MgBi)2
mp-560767,-2.806732278,KNaTiO3
mp-707508,-1.214744373,Na2H5RuN5O12
mp-622620,-0.668026603,ErNiSn
mp-19446,-3.133549396,CaMn(SiO3)2
mp-775168,-2.00397065,MnCu3(PO4)4
mp-556902,-2.514511977,KLi4NbO5
mp-1307,-0.324200182,LiGa
mp-31298,-0.909810703,ErSnRh
mp-26591,-2.786624279,LiNb2(PO4)3
mp-961694,-0.012677211,TiNiGe
mp-29513,-1.419398323,CsXeF7
mp-24312,-1.528138461,Sr(H9O5)2
mp-697084,-1.170598592,HPbIO
mp-5160,-2.442747606,AgBF5
mp-773513,-2.752547798,Er2(WO4)3
mp-561076,-2.485143851,La3GaS5O
mp-29628,-1.251889437,Na4SnS4
mp-568546,-0.737098207,In5Br7
mp-989631,-1.126689022,LaMoN3
mp-24286,-0.653341909,ZrH2
mp-15549,-3.486808777,K2LiAlF6
mp-20491,-0.275937728,LaInCu2
mp-779428,-3.367472853,Sr4HfO6
mp-698654,-2.275928813,NaMgFe(SO4)3
mp-552857,-2.292063742,TbBi2IO4
mp-555074,-0.498718947,Hg3AsS4Br
mp-758594,-0.525501609,Li(Fe3P2)2
mp-861941,-0.68207135,Ho2PdRu
mp-19816,-0.344430248,Sm2In
mp-8969,-0.481209597,Mg2Ni3P
mp-864807,-0.429943519,HfZnNi2
mp-754060,-1.981989361,Li7BiO6
mp-743614,-1.528704721,MoH2Cl2O3
mp-505400,-4.115726022,BaZr2F10
mp-774387,-3.140038579,V4OF11
mp-20899,-0.442594132,UGa3Pd2
mp-695278,-3.395457193,Ba3La9Mg7Nb5O36
mp-17998,-1.814134544,Ca(RhO2)2
mp-11055,-0.298510936,CsSn
mp-3733,-2.723460765,BeTl2F4
mp-998974,-0.359575538,TiFeCoAs
mp-30883,-0.046100944,V4Zn5
mp-677056,-1.030447816,Na2UI6
mp-21207,-0.418927369,LaInNi2
mp-540627,-1.816170001,K2Ba(SO)12
mp-698611,-1.680687798,Bi28Mo2O47
mp-765543,-1.497579634,Sr3(RhO2)16
mp-22162,-0.586467092,YbNiSn
mp-981368,-0.557622055,Zn2PdPt
mp-560812,-3.131309028,KU2(PO4)3
mp-672248,-1.420835014,TaAsPCl13
mp-554905,-3.130508173,CaZnSi3O8
mp-9273,-0.467698181,K3Sb2Au3
mp-722272,-1.16158445,Li2H12C3SN6O7
mp-21793,-0.98044546,HoSi3Rh5
mp-756724,-3.427298374,Lu2Nb2O7
mp-7170,-0.741059351,UTeP
mp-777730,-2.672230904,Li3BiB8O15
mp-677039,-0.73259004,Li5TiAs3
mp-568448,-1.38456304,Cs2AgAuCl6
mp-773982,-2.266700705,Mg3Fe4O7
mp-1006282,-0.051662667,Nd7Co3
mp-11649,-1.622175897,Ca3SiO
mp-11573,-0.505974343,TiTc
mp-31072,-0.799028609,Sc6Te2Rh
mp-7610,-3.048095493,Li2CaSiO4
mp-3626,-3.675876285,SrZrO3
mp-13738,-2.568343066,CsCd(PO3)3
mp-448,-0.078809331,CoN
mp-20268,-0.710891357,TiGePd
mp-22286,-0.82434113,Ag5(PbO3)2
mp-558358,-2.990104478,Ca(B3O5)2
mp-556841,-2.551357192,LaTmS3
mp-694876,-3.511163116,NaSr2LaTi4O12
mp-721896,-0.481482588,H4CSN2
mp-7181,-3.37910115,CsSr2Ta3O10
mp-867926,-0.590706528,LiInPd2
mp-19165,-3.14861011,BaFe(Si2O5)2
mp-11692,-0.809853326,Ba3(SiAs2)2
mp-697283,-0.723953627,H8W(S2N)2
mp-973265,0.979360769,K3Zr
mp-1521,-0.009947554,Sb7Mo3
mp-541131,-0.565729616,Ce2Sn5
mp-999317,0.226252466,OsN
mp-27407,-3.201288132,Ca12Be17O29
mp-559939,-3.002664742,Ba(PO3)2
mp-21659,-0.645034684,Hf3(NbGe2)2
mp-16970,-2.918892353,Na2Si2O5
mp-774461,-2.401603579,TiMn3(PO4)6
mp-30889,-2.624299438,Ho2Ru2O7
mp-775990,-2.290350909,Fe3Ni2Sn(PO4)6
mp-973676,-0.461200555,HgS
mp-9274,-0.448368365,Rb3Sb2Au3
mp-558523,-2.045143887,PAuClF3
mp-865307,-0.658437623,Tm2CuIr
mp-998196,-0.872333796,RbCuBr3
mp-757418,-3.446654666,KTi16O32
mp-867826,-0.456535463,DyMgHg2
mp-754092,-3.558458718,ScTiO3
mp-554805,-2.255820441,Sr3Se3(ClO4)2
mp-865080,-0.496859221,NaCeAu2
mp-752840,-1.672906714,Na6SbO5
mp-756195,-1.341268041,Li2(VS2)3
mp-769578,-2.133850287,Li4V2C4SO16
mp-36921,-1.670897851,Mn2CuO4
mp-850359,-1.928871971,Li5Fe5(CoO6)2
mp-984697,-3.835419373,EuLu2O4
mp-18199,-1.564793352,Sr3TaAs3O
mp-781504,-2.622699996,Li2CrP2O7
mp-684446,-2.472015511,LiSnP2O7
mp-616512,-0.164041664,Y3Co2
mp-580631,-2.508248251,Cs2KTbCl6
mp-12631,-2.478202027,SrTcO3
mp-8578,-0.668775005,Sc3InC
mp-1687,-0.579289703,BaPd2
mp-764354,-2.616740224,LiMnF5
mp-510529,-2.936983008,LiCr(SiO3)2
mp-12108,-0.55489055,VPt2
mp-1331,-0.339941883,YCd2
mp-779077,-2.307034806,Li24TiCr11O36
mp-561256,-4.009076208,Ba2TiOF6
mp-556878,-2.246312008,BiPPbO5
mp-4368,-0.416605848,SbPdSe
mp-12793,-0.347627594,NdAl
mp-779522,-3.158877087,Ho2P4O13
mp-776593,-4.00216498,LuScO3
mp-10455,-0.686741937,YTiGe
mp-28127,-0.963881702,Na2S5
mp-30060,-0.4614164,Sn5(BRh3)2
mp-569405,-0.156218867,B3H5
mp-21536,-0.087496742,Ni2Mo4C
mp-1016836,-0.981929535,ZnOsO3
mp-549158,-1.499718225,InCuO2
mp-2585,-1.001021949,Sr5Sb3
mp-23193,-2.248638456,KCl
mp-985443,0.024985358,Ag3Hg
mp-768234,-3.990514426,La2HfO5
mp-7895,-1.218447312,Rb2O2
mp-743771,-2.834646861,Ca8V7ZnBiO28
mp-604245,-1.64970202,BeH8(NF2)2
mp-795,-0.197849348,LiSi
mp-865963,-0.228038068,LiGaAg2
mp-22003,-0.381951938,NaN3
mp-753183,-2.061125181,CaH4SO6
mp-28787,-0.287269326,Zn2BIr2
mp-6340,-3.214609918,LiAl(SiO3)2
mp-15281,-3.303562413,Sm3ReO7
mp-31463,-0.699518905,Tb5Bi3
mp-23947,-0.281248319,Cs3MgH5
mp-989551,-2.613017001,LiTl2InF6
mp-569380,-1.530503637,BaCeI4
mp-23505,-1.02308028,K2TeBr6
mp-11360,-0.377746651,ScGaCu2
mp-554320,-1.923120319,P2Pd2O7
mp-555259,-2.276105753,UTe2PbO8
mp-567584,-0.497395438,Hf2Te
mp-6135,-2.687691455,Ba2PrIrO6
mp-27126,-1.673703855,Na2Mn3Cl8
mp-705676,-1.194846712,K4MoO8
mp-554134,-0.725352562,SnS
mp-601867,-0.764291617,Ba3(SnP2)2
mp-631442,0.647833847,V2CuBr
mp-690711,-1.976123348,TlP(HO2)2
mp-35327,-0.053352113,Al(CN)3
mp-756817,-1.638203181,Li5Cu5(SbO6)2
mp-5063,-0.657107771,YAl3Ni2
mp-19482,-2.645521322,Na2V(PO4)2
mp-675195,-0.423212686,Li13(Mn3As4)2
mp-27180,-2.239487726,NdSBr
mp-983585,0.043298476,Al3Zn
mp-1020624,-2.859972062,NaBe(BO2)3
mp-13545,-2.784352728,BaIrF6
mp-3385,-0.828808933,Sr(PPd)2
mp-22570,-0.065468627,Mg5In2
mp-769368,-1.515079837,Rb4SnO3
mp-31347,-0.74868813,YInRh
mp-560104,-2.78143905,LiTaGeO5
mp-755705,-1.593907881,SrLaI5
mp-637206,-1.501412882,AlBiSeCl4
mp-557894,-3.273520968,SiO2
mp-31135,0.034840941,Si19Te8
mp-771853,-2.259671405,Mn3Nb2Cr3O16
mp-28556,-1.454115969,Na3CuO3
mp-754846,-3.834772066,Ce2Nd2O7
mp-36165,-1.636985762,Na10Zn4O9
mp-758435,-2.342387078,Li2CuSiO4
mp-5759,-0.108191534,Tb2Fe14B
mp-22816,-0.967559266,TbGeRh
mp-775492,-2.424634376,Li2MnV3O8
mp-560404,-1.569759177,InHSeO4
mp-626014,-1.034373475,H5IO6
mp-776686,-2.398062618,Li5Fe3Ni2(PO4)6
mp-767145,-2.811493887,Mg8V5O16
mp-540477,-2.6253022,Li2Mn(PO3)4
mp-642458,-0.434036439,CeIn4Pd
mp-540789,-0.672617018,PbI2
mp-6812,-3.06218638,KBaPO4
mp-743538,-1.6092063,CrH18(O3F)3
mp-755138,-2.895609433,NdInO3
mp-555120,-2.646647253,KGaCuF6
mp-1901,-0.902796279,NaO2
mp-6596,-3.178729497,MgAlPO5
mp-645301,-2.457648085,K2CoP2WO10
mp-9006,-2.622708708,Ho2CF2
mp-730823,-1.517920681,P6H24N6O19
mp-18677,-3.47367814,PrSc3(BO3)4
mp-23538,-1.554704156,KFeCl3
mp-12543,-0.736406577,Dy3Pd2
mp-752463,-1.92975683,NbNO
mp-30442,-0.070199474,NpBe13
mp-977538,-0.697977975,ErZnRh2
mp-622491,-1.380847704,Pb13(Br3O5)2
mp-762250,-0.598088694,Sn2N2O
mp-776141,-1.776726392,Li4Fe3Co2Sb3O16
mp-624397,-0.173613281,SiC
mp-542782,-0.808647327,H8C3(NO)3
mp-976598,-0.530844965,LiHf2Ir
mp-22983,-2.041910364,LiAlCl4
mp-19946,-0.319128176,YInCu2
mp-697263,-2.353871137,LiAsH2OF6
mp-574,-0.248230998,Ta2Co
mp-24126,-2.168110335,Sr3Al2(HO)12
mp-850876,-2.703799034,VOF3
mp-704637,-2.975045286,Nb12WO33
mp-17770,-2.944014711,CsPr(PO3)4
mp-17823,-0.776294129,Tl3B3S10
mp-6964,-3.147581271,NaTbO2
mp-19713,-0.295818208,Sc3In
mp-11454,-0.529137437,Hf2Pd
mp-557090,-1.766614195,Bi2Au5F21
mp-7243,-0.659886234,LiSnPd2
mp-1006352,-0.57075265,Er2Co3Ge5
mp-10244,-0.582258975,Zr3(CuSi)4
mp-761592,-1.971711257,Li3Fe2CoO6
mp-12807,-2.927245829,KAlO2
mp-15123,-0.200709198,Th(AlC)4
mp-568137,-2.276231992,Cs3Mg2Cl7
mp-866141,-0.687054103,TiFe2Si
mp-29828,-0.410240905,K2Cu2Te5
mp-1018140,-0.1448473,MgNi
mp-23165,-0.261028098,PtBr3
mp-17578,-0.729546983,Yb4Ge6Ir7
mp-2873,-0.621775466,Ce(CrB3)2
mp-23321,-2.96271184,Sr4Cl6O
mp-3079,-3.453250769,CaTa4O11
mp-454,-0.135175267,NaGa4
mp-5012,-2.899982119,Li2SiO3
mp-763240,-2.378186212,LiCoSiO4
mp-19834,-0.244293441,CeInCu2
mp-705854,-1.963299072,CaP3H10NO12
mp-6217,-3.492402886,LaSc3(BO3)4
mp-23049,-1.7942855,KMnCl3
mp-763365,-1.955952319,Mn3O5F
mp-600078,-3.265617484,SiO2
mp-775276,-1.24294788,Co3(SeO3)4
mp-606703,-1.621863707,Ce4(GeS4)3
mp-641845,-0.559343633,Yb7In(CoGe3)4
mp-4511,-3.609824017,La2SO2
mp-555443,-2.069813101,PNF2
mp-864901,-0.686584479,LaAu3
mp-17188,-0.183559979,U(Al10V)2
mp-8680,-0.70424724,Ce(BIr)2
mp-23948,-0.261517464,Rb3MgH5
mp-17009,-2.40724891,Ba3Te2O9
mp-18216,-3.447992899,BaCa2(SiO3)3
mp-27501,-2.560848512,Cs2ThCl6
mp-753957,-3.866008102,Ce4ThO8
mp-2877,-0.592659426,Nd(CuSi)2
mp-31415,-3.850448085,La3TaO7
mp-16981,-3.639208029,Sm5Si3O13
mp-19188,-2.437524215,Ba3Mn2O8
mp-9956,-0.179930881,AlCr2C
mp-600059,-3.27579988,SiO2
mp-850917,-2.525636596,LiFePO4
mp-28274,-3.590940357,Ba3In2F12
mp-756194,-3.337293895,Tm4(B2O5)3
mp-631472,0.993136907,InFeAs
mp-17691,-0.480068667,Cu3SbS3
mp-755378,-1.18869554,NaPdO2
mp-865046,-0.807037918,LiPaPt2
mp-568144,-0.385332606,Dy5In3
mp-998298,-2.77265916,CsSnF3
mp-774171,-2.611765487,Li3Mn2(SiO4)2
mp-510488,-1.746958884,SmMnSbO
mp-850402,-2.459862019,Li5Mn8(BO3)8
mp-776283,-2.073929331,Li4NbCo3O8
mp-626225,-1.452890704,Ca(H8O5)2
mp-554116,-2.904133871,BaPb2BrF5
mp-6076,-3.398894174,Ca4LaB3O10
mp-769061,-1.641142213,Bi4(BO4)3
mp-722912,-0.475307279,Hf3Zn3C
mp-29531,-0.933386369,CsBi3S5
mp-21524,-0.681488883,SrNiN
mp-850403,-2.178478251,LiFePH2O5
mp-720593,-2.326297744,Na2B5H5O11
mp-27889,-1.390127052,K(V5S8)2
mp-1016850,-1.924738841,BaRhO3
mp-555121,-2.469050545,MgAs2S2(OF3)4
mp-1007852,0.01471036,FeCo3
mp-757173,-1.79510775,Sb5O7F
mp-510503,-0.691091651,Nd5Sn3
mp-650328,-0.328419476,NbTe4
mp-6499,-2.974602974,BaLiBO3
mp-757084,-1.724041443,Rb3SbO3
mp-21161,-1.054201745,SmSnPt
mp-755941,-3.802460688,Sm3TaO7
mp-675,-0.144506978,ZrW2
mp-23261,-0.776405768,I2O5
mp-775269,-2.373083678,LiFe2(BO3)2
mp-621960,-0.668123142,Sb4Pb4S11
mp-11498,-0.033481855,MgTl
mp-18195,-3.859794141,Lu2SiO5
mp-13944,-0.975171638,Li3AlN2
mp-560833,-2.077804116,B3Pb6ClO10
mp-20816,-0.737662615,Gd2AlGe2
mp-721463,-2.37120849,K2P2H2O7
mp-762644,-2.595007788,LiFeSiO4
mp-770734,-2.433653461,Mg3(AsO4)2
mp-6109,-3.497459165,CaTiSiO5
mp-11370,-0.427229804,ErIn
mp-558891,-3.277494343,SiO2
mp-35663,-0.656430578,Sr(InTe2)2
mp-867290,-1.312444975,TbTe
mp-771780,-1.884817917,Li3Zn(Fe5O8)4
mp-556601,-2.113597927,BiBPbO4
mp-769211,-2.57610542,Tb2Pb2O7
mp-770677,-1.877466008,Li4Co3Sb5O16
mp-1002063,-0.753884481,SnS2
mp-769271,-3.44927839,Sr4Ta2O9
mp-2233,-0.068846466,Th2Ag
mp-695965,-2.174049423,RbNa2P3(HO2)6
mp-6179,-2.41917282,KLiSO4
mp-672289,-0.26065807,Ge3N4
mp-983581,-0.934734362,Er2PdRh
mp-4725,-0.836016514,Nd(GePd)2
mp-561170,-2.696920903,Ba3ZrRu2O9
mp-1006390,-0.936376332,Ce4Si3Rh4
mp-34210,-2.910643939,Al2ZnO4
mp-757466,-2.653093498,Li3Si2BiO7
mp-542781,-0.107577212,Rb8Tl11
mp-504613,-0.615774891,Ce3(Si4Ni)2
mp-865167,-0.508194376,Ca2CdPb
mp-626378,-1.614557086,As3HO6
mp-22756,-1.608633723,K2PbO3
mp-761512,-1.268465571,Co3TeO8
mp-12956,-0.559306819,Yb(FeP3)4
mp-775485,-2.099773672,Bi3PO7
mp-616185,-1.985901911,Rb2ZnCl4
mp-866482,-0.03727309,CsSi
mp-8921,-0.628577533,Cd4P6SN12