id,formation_energy_per_atom,pretty_formula
mp-768163,-1.007554125,Li7(SbS)2
mp-643451,-0.512404508,BaMg2H8Ru
mp-561147,-2.212850279,Ba2BiRuO6
mp-975904,-0.179001796,Li3Cd
mp-4169,-3.466563305,USiO4
mp-143,0,Tm
mp-2322,-0.531885235,YAl2
mp-27519,-0.891708069,SeO3
mp-998949,-0.928045141,TiPt
mp-755404,-3.382000525,Gd3SbO7
mp-23334,-1.661965878,Bi2TeO5
mp-2991,-3.039477996,Cs2UO4
mp-696315,-1.235122635,NaHNO2
mp-11241,-0.867231107,DyAu2
mp-644236,-0.297211166,Cs2MgH4
mp-757734,-2.777925243,LiNbPO5
mp-29724,-0.271803781,Ni20(SnB2)3
mp-781014,-2.508235865,LiVP2HO8
mp-975467,0.426572665,Mn3Hg
mp-774314,-2.882447594,Ti3MnV2(PO4)6
mp-752641,-3.883105336,Lu3TaO7
mp-675460,-1.637675359,LiTiCl3
mp-24721,-0.205681564,RbH
mp-21417,-0.551921978,Eu(GeRu)2
mp-772436,-2.504878998,Li2AlFeO4
mp-771238,-2.99184842,Y2TeO6
mp-23265,-2.68436848,GdCl3
mp-976331,-2.212133417,LiLuO3
mp-621362,-0.731286556,NdInAu
mp-759406,-2.515083833,Li3Sb(PO4)2
mp-643708,-1.33579249,LiH2IO
mp-1660,-0.34584321,ErZn
mp-778071,-4.289856244,BaYF5
mp-778633,-3.001106937,LiMnF3
mp-3046,-0.533769596,Yb3Sn13Rh4
mp-18755,-1.740046076,NdMnSbO
mp-754269,-3.317526309,Nd3SbO7
mp-12417,-2.935558416,Ba2CaReO6
mp-11593,-0.663897746,CeB2Ir3
mp-6123,-2.836726853,Ba2Pd(OF)2
mp-753795,-1.87956936,Li3BiO3
mp-20649,-0.482577258,Y(MnGe)2
mp-20735,-0.405655341,Ce3Sn
mp-779889,-2.014556681,Li5FeO4
mp-765499,-3.138579207,Li3VF6
mp-17161,-1.364747071,K6CdO4
mp-760539,-3.103560303,Li2Ti3O6
mp-5472,-2.478948399,Nb2Cd2O7
mp-8973,-1.215504096,NaSi2N3
mp-767419,-2.591372469,NaPH2OF6
mp-41473,-3.06231929,CsTiNiOF5
mp-849460,-2.629280235,Mn2OF3
mp-27767,-2.759319895,Li6Si2O7
mp-774753,-2.195917588,Li5GaO4
mp-2045,-1.013302717,Tb4Sb3
mp-11397,-0.407301454,Ga3Ni2
mp-768702,-2.4834096,Ta2Zn4O9
mp-754757,-1.58677589,SbRhO4
mp-13430,-0.253513531,Nd2AlCo2
mp-13464,-0.154550418,Ca(FeSb3)4
mp-977537,-0.624251736,ZrCdRh2
mp-9545,-0.272344134,Tm2C3
mp-556405,-1.938464007,LaCN2F
mp-980049,0.543108286,Yb3Re
mp-555433,-2.761187018,NaYbCO3F2
mp-773751,-2.360056402,Fe3(OF2)2
mp-975322,-1.276242843,RbFeO3
mp-545544,-2.970434593,Ba2TaBiO6
mp-977430,-0.25842098,MgNbRu2
mp-975665,-0.386145495,Nd(Ge3Pt)4
mp-695434,-2.449100849,Li7Zr3Nb(TeO6)4
mp-973217,-0.535578277,SbSI
mp-12905,-0.915366174,Ba3CrN3
mp-569824,-1.034483914,Te2WCl6
mp-755821,-2.542127717,Li5Cu(PO4)2
mp-977544,-0.431749107,Hf2ReNi
mp-20529,-2.159912712,Ba3NaIr2O9
mp-8994,-3.245420359,Rb2NbF6
mp-675556,-3.792563479,Er2Zr8O19
mp-569073,-0.327127644,LiSn
mp-30662,-0.600006905,Zn3Ga4Pd7
mp-705329,-2.547982266,Li3Fe2(PO4)3
mp-676517,-3.917805856,La3U2O10
mp-752673,-3.127648669,Dy2CuO4
mp-569782,-1.551551226,Sr2LiCBr3N2
mp-5591,-0.295446845,U(NiGe)2
mp-754954,-0.067112887,Ag2Se
mp-757074,-1.667925701,BaCa2I6
mp-610190,-0.298205509,Zr9(In2Co)7
mp-632715,-3.474090984,Cs3CeF6
mp-571542,-0.517365195,CeAlCo
mp-569115,-0.333971134,Li2ZnGe
mp-697575,-0.297777109,Rb2ZnH4
mp-974221,-0.312489692,HoErTl2
mp-867761,-0.46789367,Sc2CoRu
mp-560558,-0.987111799,CsCdAuS2
mp-4842,-1.394988435,Al2ZnS4
mp-27764,-1.44413099,K4I2O9
mp-650513,-0.813035327,Ca3(InAs2)2
mp-27927,-3.24243491,NbAlO4
mp-1217,-0.065509771,KSi
mp-27845,-1.932289998,CaSe2O5
mp-669684,-1.150383415,U3Se5
mp-11270,-0.258204351,MnBe2
mp-22401,-0.564294392,Nd2Re3Si5
mp-779622,-2.777480701,Be2P2O7
mp-5928,-1.351129272,Al2CdS4
mp-861672,-0.653586948,Ti2FeIr
mp-850883,-2.025720178,Fe4O5F3
mp-11012,-1.322207493,Sr(BS2)2
mp-27417,-2.067006165,Li3InO3
mp-863704,-0.263270309,Pm2MgTl
mp-640039,-0.49133882,Pu2InRh2
mp-772030,-2.988851505,LiTiO2
mp-6388,-3.394684856,Ca4SmB3O10
mp-8200,-0.008946316,AgP2
mp-618968,-2.930635082,UMoO5
mp-28016,-2.179184517,Li4Ge9O20
mp-770128,-2.508487605,Cs6Ti2O7
mp-19917,-0.80413382,ZrSiTe
mp-28955,-1.033873328,Mg3BN3
mp-17062,-3.683523841,Dy2Si2O7
mp-7924,-0.181283333,Li2Sn5
mp-972395,-2.906433565,TmBeO3
mp-23598,-1.627013321,SIO3F
mp-769881,-3.124330183,Li3CrF6
mp-680498,-1.197677424,RbTaPS6
mp-505042,-1.462066942,Cu(BiO2)2
mp-558846,-1.568012188,Cs2As4Pd3O14
mp-3408,-3.622256861,CeAlO3
mp-626778,-1.594417629,NaHO
mp-1002230,-0.300540506,PuBi
mp-21012,-0.757638779,Si3Rh5
mp-680682,-0.155641756,K3Ga13
mp-20596,-0.576589953,U(SiNi)2
mp-23671,-0.309121322,LaNi5H7
mp-767358,-2.50887994,MnV3Sb2(PO4)6
mp-19089,-2.87784109,UCoO4
mp-2030,-0.995580649,RuS2
mp-20180,-0.052137203,Mn3GeC
mp-643427,-1.926157409,MnH2SO5
mp-779590,-3.72522014,La3PO7
mp-757276,-2.873322869,Li3Ti2(PO4)3
mp-685295,-3.165838605,Sr22Nb10O47
mp-3833,-0.007046926,Mg(AlSi)2
mp-654051,-0.6038327,Nb6SI9
mp-759876,-1.857401682,Na5SbO5
mp-754383,-2.784216615,BaYb2O4
mp-554401,-1.660182029,BaCu2Te2(ClO3)2
mp-754308,-2.084428585,Li3Cu3(PO4)2
mp-769614,-2.465579082,Li4V3CrO8
mp-690772,-1.354251159,V5S8
mp-568080,-1.021042286,CeP2
mp-9198,-0.28346487,Fe(SiP)4
mp-9499,-2.434210439,Sm2C(NO)2
mp-759640,-1.668101928,LiCuCO3
mp-34412,-2.033193348,Sr(La2Se3)4
mp-867122,-0.249342775,Ac2CuSi
mp-13199,-1.714638959,Zn3TeO6
mp-559376,-3.046638534,Na2CaPO4F
mp-568629,-0.427423533,YbAg
mp-773444,-2.576260306,MgV3O7
mp-1009593,0.082061377,CrCoTe
mp-775539,-1.798377642,K11Mn4O16
mp-32120,-2.460527293,Mo3(PO4)4
mp-13092,-0.345805626,Zr6Al2Ni
mp-22260,-0.135058238,Y(MnSn)6
mp-768996,-1.730638833,NaBiAsCO7
mp-981511,-3.424352703,Y3SbO7
mp-760804,-2.372942341,Li2AgF4
mp-556942,-3.481382916,Ca2SiO4
mp-781106,-2.224014524,Li32Mn5Cr11O48
mp-13277,-0.909684366,BaLiP
mp-997099,-0.584525083,PdAuO2
mp-505302,-0.181042957,U5Ge4
mp-9081,-2.13157209,CsNdS2
mp-17298,-3.127522859,SrTi4(PO4)6
mp-3166,-0.78105185,Th(SiOs)2
mp-753772,-4.053509004,Nd4O3F7
mp-15812,-0.076516701,Mn3Mo3C
mp-698170,-2.798197274,Ca2B5H2ClO10
mp-975427,-1.937960067,RbAlO3
mp-972093,-0.061735328,Tm(Mg4Al3)4
mp-21227,-0.388820702,U3TiSb5
mp-510727,-2.003481845,InTeO3F
mp-36912,-1.935037884,Pr2CdS4
mp-556061,-2.810655904,CsSb2F11
mp-676563,-2.842966608,Ta4Cu2O11
mp-1018825,-0.576531493,NdPbAu
mp-781757,-3.165949301,TaNbO5
mp-31507,-0.199716183,Sb2Te4Pb
mp-28043,-0.492583863,Tl3AgI5
mp-643259,-1.902740247,Li4H3ClO3
mp-3207,-0.512662876,Sr(NiGe)2
mp-570287,-0.570173789,Ta5Si3
mp-557935,-2.963723213,Dy2Cu(BO2)8
mp-9462,-0.470101697,CsTeSe3
mp-776683,-2.931971437,Li3FeF5
mp-2170,-0.537000563,Li2Pt
mp-29475,-0.709934003,BH2N
mp-9295,-0.264225456,TaCu3Te4
mp-542065,0.003371139,CdAgSb
mp-984745,-1.550188151,CsSnO3
mp-974326,-0.018680235,OsRu3
mp-672231,-1.2543262,La3Ge3Br2
mp-11200,-0.247394039,LaMg2Ni
mp-1235,-0.845097518,TiIr
mp-638150,-1.055447939,KPPbS4
mp-2249,-0.34371045,HoZn
mp-680111,-0.590387952,CdI2
mp-1018117,-0.778187335,CeRh
mp-757996,-2.724475849,LiTi(PO3)4
mp-560613,-1.827807661,Na2TeO4
mp-22248,-2.977277873,Eu(BO2)3
mp-20285,-1.087808511,NaPt3O4
mp-7971,-2.575719969,Ba4Li(SbO4)3
mp-771833,-2.798179676,Sr2LaCl7
mp-753798,-1.927721476,Rb2SnO3
mp-545529,-2.418480208,NdBi2ClO4
mp-760133,-2.421625506,Li6Ag3F10
mp-976220,-0.1651869,NaCdHg2
mp-505286,-0.242474406,Rb2NaFe(CN)6
mp-37920,-0.272504069,AgAuS2
mp-763975,-2.644571525,V2O3F
mp-28005,-1.808905525,As2(SO4)3
mp-636498,-0.150307439,In3Ir
mp-9368,-2.16970489,RbTmS2
mp-27469,-1.664023366,Th2BiN2
mp-755312,-2.167846365,Li5Nb2Cu3O10
mp-2517,-0.461065921,Ca2Si
mp-8086,-1.712858994,Na2Zn2O3
mp-558960,-2.845628753,Dy2Tc2O7
mp-4582,-2.516786484,NdRhO3
mp-971733,-1.165813108,ZnGaO3
mp-976135,0.032724255,PrEr3
mp-864978,-0.444795424,Mg2AgAu
mp-615459,-0.30157023,La2Ni5C3
mp-2459,-0.498881822,YbIn
mp-680415,-0.639901233,Os3C10(BrO5)2
mp-976139,-0.022888807,Li3Mg
mp-15670,-2.463394878,Y5S7
mp-1335,-0.122092695,VFe
mp-531980,-0.135329051,Tl4Ag18Te11
mp-631379,0.979861705,ZnCuMo
mp-568785,-1.824379743,NaAl3NiCl12
mp-777888,-2.880631144,LiFeF3
mp-961699,0.120189851,NaMgP
mp-755646,-1.344784136,LiCuO
mp-867190,-0.72233979,Pr4Ge7
mp-647247,-0.416889472,Er2Ga10Os3
mp-675056,-1.737975947,Na3(TiS2)10
mp-982048,-1.507090295,Ge2O3
mp-19158,-2.146357839,Mn3WO6
mp-975173,-2.281486211,RbYO3
mp-755731,-2.722608233,Ta2Pb2O7
mp-5887,-0.58069503,EuNiGe
mp-781615,-2.987910698,HfCrO4
mp-676765,-1.487987774,Na21In5O15
mp-675525,-0.507691517,InGaSe2
mp-5970,-1.193270168,Ba(CuS)2
mp-20088,-1.617967492,Na4PbO4
mp-694975,-3.100908236,Ba3HoUFeO9
mp-7062,-0.11475616,Mg3Al9FeSi5
mp-30478,-0.559556108,Ca2Pb
mp-1713,-0.061836347,CsCd13
mp-12022,-2.43192895,HgB4O7
mp-1008280,0.06463445,CrCo3
mp-631378,-0.445391993,Cs7NbIn3As5
mp-769527,-1.303049944,Li2MgCo13O28
mp-555303,-2.87727104,LiEr(PO3)4
mp-768973,-2.784193288,Ba2YCl7
mp-567551,-0.204965935,SiC
mp-9763,-1.381670427,K2NbCuS4
mp-2251,-0.460653241,Li3N
mp-14128,-3.75285795,K2HfF6
mp-557282,-1.489398148,Rb2Ce(NO3)6
mp-542136,-2.230250484,Na3PSO3
mp-698668,-2.409110481,Nb3ZnFe3(O6F)2
mp-559963,-1.218734132,AlS2NCl4
mp-762996,-2.219951947,FeOF
mp-14653,-2.409990029,AgSb2F12
mp-20316,-0.319892903,PPbSe3
mp-30011,-1.892506969,SbKrF7
mp-685194,-3.223909054,Li4Ti5O12
mp-756914,-3.308304699,Er2B4O9
mp-672251,-1.261682474,CsGaBr4
mp-971901,0.124522331,ZnPb3
mp-573658,-0.350633078,Cs3BAs2
mp-505025,-3.431396618,BaPuO3
mp-780175,-2.427746123,Li4Fe3P4(HO8)2
mp-757233,-3.866362726,Gd2Zr2O7
mp-17120,-0.422412494,Cs6K3AlSb4
mp-31108,-0.86457109,Pr12InPt7
mp-554581,-1.328609425,KSmP2S7
mp-541856,-0.398925164,U3TiGe5
mp-13576,-2.474805511,EuAsO4
mp-19300,-3.237529707,La2MoO6
mp-862900,-0.357247691,PmCu2Sn
mp-696347,-1.839400981,NaH3SO5
mp-761809,-2.366601616,RbHoHS2O9
mp-560471,-2.271540663,Zn2B2PbO6
mp-807,-0.559417974,NpTe
mp-674953,-0.092425625,Cu2GeTe3
mp-19047,-2.486343235,MgMoO4
mp-772753,-2.383056315,Li3ZnPCO7
mp-976115,0.026555171,K3Rb
mp-571126,-0.686875061,Ti2BRh6
mp-3716,-0.905889093,TbNiSb
mp-29580,-0.988954306,Ta9(CoS3)2
mp-1016842,-2.139354849,TiHgO3
mp-17275,-3.731612951,SrY2O4
mp-774719,-3.150849777,Ba4Nb3O12
mp-13365,-0.189585373,SrZn2
mp-769575,-2.481011393,Li6Co5(P2O7)4
mp-4393,-3.357180063,Cs4U5O17
mp-913,-0.126125951,CdP2
mp-776427,-3.796162269,ZrO2
mp-22919,-0.193210753,AgI
mp-985806,-0.17629882,Al2Cu
mp-17146,-1.060832631,K2S5
mp-699501,-2.11758515,Ba(HO)2
mp-756009,-1.131002379,NaCu3O4
mp-16645,-0.922287672,SmMgPt
mp-556653,-1.677876195,Cd2BiAsO6
mp-759763,-3.73569537,La26B8O51
mp-752729,-3.734087845,CaTb2O4
mp-5966,-1.739467614,Cd2SnO4
mp-760590,-1.612544028,Li5(CuO2)3
mp-9586,-1.19550458,NbSnS2
mp-757901,-2.417050963,LiSnPO4
mp-18892,-2.794586352,KBaVO4
mp-1018814,-1.174929314,NdSbTe
mp-25449,-2.198859369,LiCuPO4
mp-976797,0.042516011,Pm3Sc
mp-35647,-1.441093902,Zn2PtO4
mp-4041,-0.434274954,Yb(AlGe)2
mp-557861,-3.204278246,Li2CaTa2O7
mp-776642,-2.794643203,Li2Fe3F8
mp-568646,-0.439363407,Ta3Si
mp-29025,-1.027021017,Li5Br2N
mp-771832,-2.928399698,Li2Ti3SnO8
mp-766324,-1.65851556,BaCaI4
mp-989583,-1.962032752,Rb2LiInCl6
mp-21309,-1.883290132,MgTe(PbO3)2
mp-27241,-1.811359512,K2SbCl5
mp-1590,-0.069251835,Be12Cr
mp-772955,-2.902280823,Ba2LaCl7
mp-14542,-0.587838444,Y3FeB7
mp-706976,-1.808578936,PH4N(OF)2
mp-17282,-1.850233307,SrTh2Se5
mp-4214,-0.127517288,Lu2Fe14B
mp-20787,-0.373458635,FeB
mp-32590,-1.669224198,U4N7
mp-23731,-1.930483331,CuSi(HO2)2
mp-20485,-0.51151791,InSe
mp-550893,-3.955073373,HfO2
mp-10225,-1.330567291,NaVS2
mp-867770,-0.429586429,BaHg3
mp-770671,-2.237621516,Li4Cr5Sn3O16
mp-564,-0.366216563,TePd
mp-770344,-2.679548843,Li3V(BO2)5
mp-557231,-2.110410195,KTeO2F
mp-1767,-4.112111608,Tm2O3
mp-21209,-1.314164758,Cu3(AsO4)2
mp-19786,-0.576198421,UCoAs2
mp-13229,-3.58236192,K3GdF6
mp-759928,-2.888421005,K3TbSi3(HO5)2
mp-23145,-3.097665804,Na4Al3Si3ClO12
mp-673874,-2.385352184,Ba9(NdS6)2
mp-675711,-1.112862726,Li(Mo3S4)2
mp-865901,-0.595111484,BeCo2Si
mp-626855,-1.478752302,Fe4H14O13
mp-755559,-2.871480037,LiNbO3
mp-3553,-0.680214869,KTeAu
mp-1002136,-0.832171506,LaAu
mp-8220,-0.806613221,LiTb(CuP)2
mp-776246,-2.349974588,Zr2N2O
mp-643378,-1.377977529,CuH4Pb2(ClO2)2
mp-978962,0.869938052,Tl3Fe
mp-3109,-0.497636398,UGeTe
mp-780807,-2.507866667,Li2TiCr3O8
mp-774229,-1.921058048,Mn2InO5
mp-567318,-0.332032117,TlSbSe2
mp-17559,-3.880323764,Y2TiO5
mp-775436,-2.746167234,Ti3Fe(PO4)6
mp-555489,-3.596322275,LiY6B3O14
mp-721011,-2.285335706,Pr20AlSi19N33Cl2O19
mp-862445,-0.55426328,TaAlOs2
mp-766258,-4.011776963,Y13Tm3O24
mp-21452,-1.470319813,Pb3O4
mp-1018829,-0.633491953,NpTe2
mp-756647,-2.802936335,K2YPCO7
mp-3317,-2.550372172,SmRhO3
mp-757434,-2.393010915,LiSi6Bi9O26
mp-768762,-3.054639577,Ho2TeO6
mp-16513,-0.445460741,NdAl3
mp-862670,-0.726062428,Sr3Co(CN)3
mp-281,-0.061532652,YbCo2
mp-752753,-1.999986768,SbO2F
mp-22625,-0.211962128,Cr2CuTe4
mp-760755,-3.393131182,KAl11O17
mp-776662,-2.691427825,LiCrPO4F
mp-676252,-1.591195139,Li9(RuO3)10
mp-24523,-1.512491058,CsAlH24(SeO10)2
mp-866873,-1.345329298,Ca3Sn2S7
mp-30183,-0.592150086,ZrAl5Ni2
mp-1008873,-0.059220956,MnCoSe
mp-769476,-2.447091655,Li6Fe3Cu(PO4)6
mp-779545,-1.321479568,Na3CuO2
mp-28908,-2.458551107,Ba5(RuO5)2
mp-706983,-1.943645741,K3HPtS2(ClO3)2
mp-555932,-4.319960171,RbEr3F10
mp-570923,-0.214420021,YRe2
mp-639876,-0.468770038,U2SnRh2
mp-849391,-0.894400788,InH9(NCl)3
mp-989545,-1.857033536,Rb2NaSbCl6
mp-28568,-1.227108072,Rb3CuO2
mp-554518,-2.6400346,EuCO3
mp-690799,-0.557422674,Zr(TiH2)2
mp-766390,-1.306692581,Li5BiS4
mp-753853,-3.419560907,U4BiO10
mp-764759,-2.110899936,Li6Mn5O12
mp-973229,0.192762832,ScNb
mp-560873,-3.059194695,Pr3Nb(Cl3O2)2
mp-17813,-0.415537323,ZrAu4
mp-5241,-1.474951097,DyPS4
mp-28788,-2.477144333,Ba9(AuO6)2
mp-18798,-2.590051937,Sr2Mn2O5
mp-773167,-1.596041546,Mn3CoO8
mp-9628,-2.732653339,KCdF3
mp-621624,-0.012118108,Tl7Sb2
mp-27233,-0.170681356,SrAl
mp-558281,-3.561195779,SrCrF4
mp-569939,-0.510396501,AgBi2Se3Cl
mp-779084,-2.564076371,LiCr(PO3)3
mp-989630,-1.208184981,LaWN3
mp-28932,-2.421756227,Sn4OF6
mp-769265,-1.877889995,Na6Bi2As(CO4)4
mp-12268,-3.011130783,BaCuF4
mp-28726,-4.024219784,KYF4
mp-24313,-1.372114342,ZnH6(CO3)2
mp-36381,-0.711837917,Sn(PS3)2
mp-1167,-2.198873967,CF4
mp-27552,-0.666359175,TlPbI3
mp-2789,-0.829176578,NO2
mp-757690,-2.589232106,LiNb(PO3)4
mp-763780,-2.465986641,Fe(PO3)3
mp-567692,-0.512324943,Y3Ni4B4C3
mp-865111,-0.590569879,NaSmAu2
mp-768909,-1.551086657,Sr(IO3)2
mp-853,-0.337662701,ErNi5
mp-38125,-1.425954928,Sm2CdSe4
mp-766467,-0.925265385,LiCuS
mp-770542,-2.345319101,MnP2O7
mp-29809,-0.962136222,Ca2GeN2
mp-772151,-3.303878325,Li2Ti4O9
mp-30623,-0.720129816,Dy5Sn3
mp-14294,-2.829892017,Ba2YbSbO6
mp-18062,-0.260658198,Na10YbSn12
mp-676724,-0.379954177,Ca(Al3Te5)2
mp-2499,-0.420486558,BaSi
mp-977414,-0.883073751,ZnCu2SiS4
mp-644514,-1.796011147,MnO2
mp-9900,-0.55575086,Ag2GeS3
mp-19458,-2.540052895,BaV10O15
mp-28125,-1.69078962,H11NF8
mp-10074,-0.253174915,GeSe2
mp-14246,-1.849701753,Ba(AlS2)2
mp-19465,-2.90010499,HoCo(BO2)5
mp-561647,-2.633158293,Cs2TeOF4
mp-613455,-2.309739067,Yb(ReO4)3
mp-8314,-2.047895357,Cs2NaAsO4
mp-721081,-2.250698043,KUP(H2O3)3
mp-24465,-2.38648543,GaP3(HO5)2
mp-672984,-2.317138579,LiCu(PO3)4
mp-8109,-3.001493935,EuB4O7
mp-15968,-0.788523537,Sm(CoSi)2
mp-560046,-1.157316074,Ta2Pt3S8
mp-977286,0.207674402,Li3Sm
mp-21695,-0.392980263,Ce(Ni2B)6
mp-675100,-1.485040401,Nd2PbSe4
mp-755287,-2.855227424,Ca3CdO4
mp-540639,-0.370719575,FeH8C4(S2N3)2
mp-13313,-1.255339061,ScTlSe2
mp-695952,-2.355391063,Cr3(PO4)4
mp-999388,-0.327505319,NbC
mp-697767,-2.596885061,LiMoP2O7
mp-772630,-2.61683544,Li3V(BO3)2
mp-684732,-0.780418718,Co2S3
mp-8395,-3.913945733,CaTiF5
mp-768160,-2.290449799,Li2BiPCO7
mp-11258,-0.85039227,TbAu
mp-862658,-0.034207727,LiCu3
mp-23940,-1.602195971,NaHO
mp-985582,-1.309572555,Li6PS5I
mp-555172,-1.503585376,K3Nd3(PS4)4
mp-28897,-0.27525232,BIrPd
mp-781646,-3.849525005,Tb2TiO5
mp-756290,-3.147401746,TbGaO3
mp-734150,-2.035603812,Na3YH6(CO4)3
mp-866280,-0.554097637,CaSmRh2
mp-849464,-1.812146121,Li3Mn5(CuO6)2
mp-765742,-2.40186332,Na3V5O10
mp-615993,-3.272777421,SiO2
mp-2475,-0.28502364,SmAg
mp-556236,-2.542620299,Na3Ce2C4O12F
mp-17869,-2.303791175,NaCuF3
mp-557118,-3.265673003,SiO2
mp-767401,-3.123251555,Gd2AsO5
mp-28487,-0.0502401,Ge5(Te4As)2
mp-997012,-0.896919112,CuPdO2
mp-29127,-0.487448391,Bi(TeBr2)2
mp-614013,-0.949544822,CsSnI3
mp-642358,-2.483387195,Ba4Pr(RuO4)3
mp-977399,-0.623926237,LiMgPd2
mp-28094,-2.669395184,RbDy2Cl7
mp-555863,-2.631967568,P4PtF12
mp-371,-0.245337373,La3Tl
mp-863674,-0.443242106,ErMgHg2
mp-989587,-1.179595859,K2SBrCl6
mp-20845,-3.051102052,Dy2Sn2O7
mp-561525,-2.54582666,K2Ga2B2O7
mp-7483,-2.22176832,KHgF3
mp-3088,-0.709784561,LaBRh3
mp-850407,-1.708651616,LiMnP(H6O5)2
mp-7640,-3.543995565,Sc2Si2O7
mp-865162,-0.627109509,MgGeRh2
mp-24399,-1.69814977,MgH10SO9
mp-569516,-0.344508888,HfNi5
mp-975208,-1.452533139,RbRuO3
mp-999204,-0.361387549,ScAl3
mp-13525,-0.697863094,HoInIr
mp-754401,-3.400509463,Al2O3
mp-680048,-0.72595165,RbW3Br7
mp-961723,0.071167368,LiCaRh
mp-754825,-3.229163155,NaTmO2
mp-1020031,-1.191675562,LiCaAlN2
mp-690539,-2.470284387,CrNiF6
mp-764746,-2.395564369,Li5V7O12
mp-759607,-2.396667795,LiSb4P7O24
mp-1019894,-3.250361352,La4B10O21
mp-2340,-1.302879415,Na2O2
mp-18253,-2.520509559,SrGa4O7
mp-559711,-2.33800801,Rb2Na2SiO4
mp-606949,0.003575075,C
mp-23283,-0.799963927,Sm4Bi3
mp-561492,-1.664014642,ZnSb2(XeF4)6
mp-554034,-3.448211174,KLa2NbO6
mp-580931,-0.019260408,MgZn5
mp-777887,-3.022875559,Li3VF5
mp-554107,-2.066307045,K2Na4Ge2O7
mp-22791,-0.36268558,TlInTe2
mp-978849,0.010144748,Sm3Mg
mp-23711,-0.27507008,MgH2
mp-15415,-0.493950653,K2GaAs2
mp-30254,-0.515091122,Ba3(LiSn2)4
mp-1363,-0.268742205,Na2Au
mp-30447,-0.718385134,Sr9Cd4Bi9
mp-571581,-0.917166902,SmSnPd
mp-973019,-0.802511784,LiSm(CuP)2
mp-23431,-0.624568763,CsCu2I3
mp-568431,-0.126489218,Nd6Fe13Sb
mp-980386,-3.124371177,Yb2Nd2O5
mp-19886,-1.077728545,ThSnPt
mp-774302,-2.151986171,TiMn3O8
mp-558046,-3.041629602,KMnF3
mp-770462,-2.618032046,La2Bi2O7
mp-765948,-2.395644008,Li4Nb3Cr2Fe3O16
mp-561377,-3.001577565,K4Mn3F12
mp-34081,-3.985216387,NaYF4
mp-553342,-3.187074274,CsBe2BO3F2
mp-22295,-0.447431615,Ca(Cu2P)2
mp-865536,-0.765937993,YbZrRh2
mp-644672,-1.708675428,Cs3VH8(Cl3O2)2
mp-752881,-1.062790658,Li2CuS2
mp-568036,-1.247783798,La2GaN3
mp-25885,-2.192229025,LiCuPO4
mp-541722,-2.136875616,CsBa2Br5
mp-3384,-3.732196322,Er3Al5O12
mp-779643,-2.306798326,Li2CuPO4
mp-1077,-0.287602316,B2Ru
mp-550998,-2.208883461,TiZn(BiO3)2
mp-680561,-0.179878704,U5Re3C8
mp-550759,-1.18009407,RbClO4
mp-6200,-2.778835346,Ba2NdRuO6
mp-685477,-1.787170334,Tc6BiO18
mp-4597,-0.455692308,Y2B5Pd14
mp-600041,-3.275979813,SiO2
mp-22755,-0.919821732,TbGeIr
mp-676580,-1.859715801,Ba11(Nb3S14)2
mp-769809,-3.821397791,Gd3TaO7
mp-11009,-0.708443541,CaC2(SN)2
mp-1008689,0.286325284,Ti2Si
mp-672981,-2.319109333,BiP2O7
mp-998981,-0.374605162,TiAl3
mp-556896,-2.210842472,Ba4AgAuO6
mp-1008901,-0.166292879,MgH2
mp-30283,-1.62194401,Tb4SiBr6
mp-16705,-3.754582278,Pr2O3
mp-44,0,U
mp-561664,-2.487541845,TeF4
mp-989582,-0.962426352,Ca6Pb2SeN
mp-607931,-2.340291353,Cs3NaLi2(BO3)2
mp-3274,-0.46328411,NiGePd
mp-782662,-2.394300335,Li2V5Cr2O12
mp-746364,-0.891670069,CrH12Pd(NO)4
mp-554719,-2.481041014,Mg3B(HO2)3
mp-989614,-0.93166496,LaReN3
mp-780392,-2.540131339,Li5Cu(PO4)2
mp-756066,-3.886150647,Ho2Zr2O7
mp-15994,-2.221303409,Hg(PO3)2
mp-650,-0.3233696,Be5Pd
mp-980052,-0.232754916,Yb3In
mp-30635,0.061042845,Fe3Pd
mp-23957,-1.503395269,SrH2I2O7
mp-553082,-2.401908922,PrBi2ClO4
mp-703470,-1.245758078,AsH6NO4
mp-19011,-2.235185228,Ba2NiTeO6
mp-24728,-0.306056956,VH2
mp-7574,-0.445064454,AlBMo
mp-690771,-0.970029662,H8CS(NO)4
mp-672689,-0.686016491,Hf6Co16Si7
mp-766079,-2.037331165,Sr8Cu8O17
mp-643710,-0.532490172,Cs3B12H12I
mp-12027,-0.63834859,TaTlSe3
mp-28133,-1.796896636,Gd3CCl3
mp-757207,-2.074424458,YH5S3O13
mp-704950,-2.70547357,SrFeSn(PO4)3
mp-35527,-3.036104062,Zr7(NO2)4
mp-662535,-1.382182813,PbSe2O5
mp-24411,-0.351690081,K2LiAlH6
mp-975184,-0.247773409,NdMgTl2
mp-560296,-1.014663575,K(Mo6S7)2
mp-1001600,-0.192895572,HfB12
mp-21583,-1.953075975,Sc(US2)3
mp-19333,-2.389917062,Fe2B2O5
mp-850363,-1.877346926,Ti2Co3Te3O16
mp-771058,-2.240590007,Li4Cr3CoO8
mp-675993,-2.354669666,Zr2N2O
mp-29432,-2.409276772,NaScCl4
mp-1013642,-0.86171494,Ca3AsP
mp-862288,-0.20188096,AlFe2W
mp-20996,-0.406907172,DyIn5Rh
mp-5884,-3.543337815,TmPO4
mp-505786,-1.585096244,CeH14Cl3O7
mp-755581,-2.948320933,NaCeO2
mp-776599,-3.011982091,NaTi2(PO4)3
mp-568630,-0.404737499,LuRu2
mp-5628,-1.496674098,K(RuO2)4