id,formation_energy_per_atom,pretty_formula
mp-757165,-1.224183334,Li5FeS4
mp-684958,-0.571999857,TaO10
mp-9157,-2.280513826,K3AlO3
mp-554174,-2.258190427,Ca2P2H8O11
mp-6952,-3.907025504,RbYbF3
mp-673129,-2.449771922,Sn(PO3)3
mp-39123,-3.149878988,Na3Zr2Si2PO12
mp-10854,-0.449284241,Tb(BC)2
mp-759498,-2.451279088,LiSbP2O7
mp-849519,-2.428067798,Mn6O5F7
mp-776259,-2.545395776,Hf2N2O
mp-771711,-2.329639149,Li4V3CoO8
mp-540592,-1.646104749,Fe2(TeO3)3
mp-510569,-1.744641451,CsCeCuS3
mp-781054,-1.67724373,Li2Cr4O13
mp-743656,-1.619041524,Na2MgB12(H4O7)4
mp-865095,-1.7786426,NaGaH8(NF3)2
mp-20954,-0.651541047,DyTiSi
mp-17535,-0.143337032,B3Ru7
mp-770824,-2.493195004,Nb2P4H3O16
mp-505601,-0.256767066,Nb3Co3C
mp-510581,-0.595096383,PrNiSnH2
mp-12780,-0.596313772,Sr(GaAu)2
mp-775238,-2.365662577,LiFe2(BO3)2
mp-768268,-1.361630898,Li14Co2S9
mp-696993,-1.982473226,Sn2H2SO5F2
mp-23703,-0.483196004,LiH
mp-766877,-2.343395692,Si6Bi9O26
mp-1007992,0.314787601,CrH
mp-755552,-2.10836276,LiYS2
mp-977415,-0.672628455,HoCdAu2
mp-767114,-2.478397494,SnP4O11
mp-973736,0.40502466,GeAs3
mp-765385,-2.081049052,LiV(CO3)2
mp-756784,-0.954623642,LiSbS2
mp-972406,-0.656757883,YbSi2Ni
mp-21900,-1.04914325,Ce(SiIr)2
mp-28273,-1.307243289,K3CuO2
mp-756245,-1.495884133,BaYI5
mp-571263,-0.061994341,KIn9Co2
mp-1161,-2.000714093,LaSe
mp-567781,-2.230230687,Cs3Zr7BCl20
mp-4187,-0.834142449,Ge2N2O
mp-774361,-3.019098536,Li2Mn3F8
mp-30109,-1.987613328,Sb2(AuF6)3
mp-10767,-2.815297043,CsK2Yb(PO4)2
mp-981210,0.510740747,Tl3V
mp-765665,-1.703616593,VP2H8(NO4)2
mp-625211,-1.622379052,LiH3O2
mp-12010,-2.174367931,BaSeO4
mp-559109,-2.677907101,ErGeBiO5
mp-8608,-0.182922261,K(Cu2As)2
mp-703517,-1.663477193,NaMgPH12O11
mp-11582,-0.912074924,LiGaSe2
mp-27637,-0.3627779,NiBr2
mp-721347,-2.323989436,CaPH4O5F
mp-1345,-1.092412172,CaP
mp-29710,-1.745677915,Hg4P2O7
mp-1012551,-2.605495981,BaBrCl
mp-766123,-4.03366197,Ce4ThO10
mp-771184,-2.035007721,Cr10Fe5O24
mp-13133,-2.784734408,K2TiO3
mp-9938,-0.743265425,Hf2Si
mp-12365,-1.80906841,KThCuS3
mp-1006323,0.062471423,CeLu3
mp-559064,-1.5248672,SnP2(Cl5O)2
mp-757917,-2.528135005,Be(GaO2)2
mp-9882,-0.979160765,Y2Si5Rh3
mp-630376,-0.7275512,Sb6Pb6S17
mp-21718,-0.69339518,Sr2In4Pt3
mp-680395,-0.29890385,Li3As7
mp-866304,-3.315422175,Ba2GdB2ClO6
mp-771065,-2.159755362,Li4CrFe3O8
mp-776448,-2.843368417,BaNb3NO7
mp-1037,-0.702004221,PrPt5
mp-8211,-0.239720015,GaGeTe
mp-980199,-0.56549536,YbDyHg2
mp-28638,-1.226299368,Gd2CCl
mp-28861,-0.045852126,CsC8
mp-30423,0.010766497,VAu2
mp-570466,-0.016111073,Li2Ca
mp-561514,-2.96748669,NaSrB5O9
mp-861975,-3.116720482,PaO3
mp-8042,-2.986644491,ZrGeO4
mp-568606,-1.898337665,CsErTa6Cl18
mp-7897,-0.208689254,K3P
mp-24287,-0.052261509,CrH
mp-775334,-2.507576892,V3Cu(PO4)4
mp-10881,-0.823927418,Ce3AlN
mp-706336,-2.708541043,Na4Be2Si6Sn(HO5)4
mp-971853,0.616816027,Zn3B
mp-679985,-1.970600399,Ba3In4(CuO4)3
mp-11531,-0.242484783,VNi2
mp-5950,-1.494942533,Cd2Os2O7
mp-764782,-1.871544563,Na5WO5
mp-1016200,-0.271209091,MgGeAs2
mp-29940,-1.861546932,SbClF10
mp-616458,-2.061501265,Cs2CO3
mp-760461,-3.559575496,LuBO3
mp-6583,-2.061698936,Ba2Er(CuO2)4
mp-555874,-0.94360675,LiAsS2
mp-961680,-0.058378987,NbAlPt
mp-28192,-0.765634443,AuSCl5
mp-989644,-2.16229184,Cs2NaCaCl6
mp-555218,-2.418333146,Ba4Br6O
mp-7168,-1.359856454,TbPPt
mp-866227,-0.514261688,CaNdRh2
mp-32537,-1.654665398,Ag2W2O7
mp-11400,-0.568970729,ScGaNi2
mp-766361,-3.04373054,Nb2O5
mp-22894,-0.284242616,AgI
mp-554577,-2.761622842,Li4P2O7
mp-8056,-3.147891759,Ca(BO2)2
mp-17599,-1.839465504,CaCu3(GeO3)4
mp-34663,-0.431981942,NaAsSe2
mp-19966,-0.386772815,GdTl
mp-21445,-2.856133341,Ba3In2O5F2
mp-567258,-0.365376404,LaZn2
mp-864907,-0.698881002,MgZrPd2
mp-698101,-1.836807403,U(HO)8
mp-8631,-0.498455365,LuAlB4
mp-19397,-1.624477062,Ba2Na(NiO2)3
mp-555691,-1.941332138,SrZn(SeO3)2
mp-21606,-0.646151215,TiMnSi2
mp-530081,-0.541852132,Mo15N16
mp-775340,-2.969518785,Li2Cr(Si2O5)3
mp-557704,-1.075943946,TlNO3
mp-760477,-3.447914522,SmBO3
mp-1008225,0.198961182,CrFe2Sb
mp-20731,-0.45788192,In2HgSe4
mp-540714,-1.498637685,NaH8SNO6
mp-23547,-3.998306235,Ba7(ClF6)2
mp-5525,-2.931204728,KAlO2
mp-20809,-0.510182286,Cr4InCuSe8
mp-997046,-0.303014819,AuClO2
mp-8947,-1.331071959,Sr(BS2)2
mp-18965,-2.071341671,BaCoO3
mp-20419,-0.704104858,Ca4In2N
mp-15576,-2.994670702,Dy3Ga5O12
mp-21683,-0.408903722,In2(Ni7P2)3
mp-3529,-1.508204284,K3VS4
mp-770399,-2.753412511,Li6Ti2O7
mp-4471,-3.689590707,ScAlO3
mp-35915,-1.84933487,BaBi2O5
mp-763200,-2.360135142,LiVO3
mp-16690,-1.42468498,K2NdP2S7
mp-978798,-0.098482744,Sm3I
mp-19293,-2.967496987,Sr2FeO3F
mp-541712,-1.456281119,Ce3Si6N11
mp-625718,-2.304429512,Y(HO)3
mp-758037,-2.761481251,Li2Ti3P9O28
mp-759650,-2.439788305,Li3Bi3(PO4)4
mp-5493,-0.806211085,PrSi2Ni
mp-779239,-2.629657507,Li3MnV(PO4)3
mp-999544,-0.331544694,YAg2
mp-29454,-1.350516184,Na3TlO2
mp-559588,-0.776777261,CdSbS2Br
mp-753692,-3.081736431,Ho2Ge2O7
mp-569415,-0.250462759,Nd5Co19B6
mp-972046,-0.705717879,Yb2HgBi
mp-868012,-2.365601871,Li4Nb3Fe3(SbO8)2
mp-22512,-2.507634839,Sr2In2O5
mp-556703,-3.341218993,Ba3Mg(SiO4)2
mp-779300,-2.666543449,LiFe2OF5
mp-30304,-1.798242836,Bi3SbO7
mp-30613,-0.555017718,ErSn2
mp-545506,-2.036947975,GdZnPO
mp-779317,-3.00094224,LiMnF3
mp-976060,0.472862815,Li3C
mp-863423,-2.355332416,SrGa12O19
mp-999557,0.078566774,Mn2SnRu
mp-6854,-0.263895372,Cs2LiMn(CN)6
mp-4900,-3.606122125,BaCeO3
mp-778828,-1.960947405,Mn3O5F
mp-21576,-0.8205832,Sc2Te
mp-11151,-1.323242262,NaPrTe2
mp-20391,-0.397511278,B2Mo2Ir
mp-772591,-2.700604094,Li2Mn2Si2O7
mp-504211,-2.541811035,LiSn(PO3)3
mp-1016871,-2.214104571,ZrHgO3
mp-4653,-1.081100754,Y(SiIr)2
mp-41414,-2.643682298,BaLaMgBiO6
mp-556039,-2.847883125,Na3Y(BO3)2
mp-1009129,-2.681710464,MgO
mp-37179,-0.842747059,Ta2CN
mp-827,-0.432566223,KN3
mp-22721,-0.500684515,Mo6PbSe8
mp-912,-1.085942159,LaPt2
mp-570578,-0.210461588,ZrIn3
mp-770464,-2.342188662,LaBiO4
mp-14411,-1.975735902,K4GeO4
mp-782645,-2.389333512,Li2MnPHO5
mp-5491,-0.244166263,MnAlAu2
mp-1009489,-0.376896685,RbTe
mp-571425,-0.223133569,Ag2Hg7(P4Br3)2
mp-867850,-0.628769184,ScMnRh2
mp-762049,-1.855882599,LiCu2PO4
mp-569940,-0.365553577,K3Bi
mp-631364,0.821467055,TaOsPb
mp-855,-0.009088109,MgBe13
mp-18099,-3.393733799,BaSbF5
mp-756372,-1.902429995,Rb2MgO2
mp-30472,-0.291892376,Ca2GaCu2
mp-760490,-2.534858575,Mg7Cu2O9
mp-26261,-2.484400935,Li2Cu(PO3)4
mp-29000,-1.066176814,Na3B5S9
mp-1009581,-0.453314726,CrSe2
mp-4200,-3.376942188,ScPO4
mp-672966,-2.326510419,LiCu(PO3)4
mp-570744,-0.018894052,Si3As4
mp-17279,-3.274405048,SiO2
mp-767404,-2.391605171,Gd2As4O11
mp-971703,0.369300938,V3Ag
mp-1009207,0.410621175,MnSb
mp-22247,-0.855949673,ErSiRu
mp-2117,-1.851808671,TbN
mp-568588,-1.377048654,NdTlSe2
mp-27191,-0.731996538,Zr9S2
mp-18073,-0.465824752,K7TaAs4
mp-19063,-3.243329748,ErCrO3
mp-756294,-3.14629786,Li2Ti2O5
mp-11944,-0.560238505,LiYbGe2
mp-14368,-1.757319287,SbAsO5
mp-554410,-2.799191608,Ba2LaRuO6
mp-21760,-0.337271201,Rb2In2Sb3
mp-541202,-1.405975313,TlCuAsO4
mp-764524,-2.343370235,Li3Fe8(BO3)8
mp-765639,-3.912179917,Sm11Y5O24
mp-631390,0.884606982,SrZrZn
mp-534982,-2.807702791,Al13Si5H14Cl(O17F2)2
mp-761687,-2.326670979,LiSbPO5
mp-11220,-0.349337762,Sc2Al
mp-33302,-3.372270609,MgAl2O4
mp-13502,-0.361392037,TmCoC2
mp-504687,-0.419737998,USnTe
mp-1009555,-1.864453283,CrO2
mp-754375,-2.793744431,NaTi2O3
mp-5641,-0.320580615,Tm(MnGe)6
mp-981662,0.646774911,YbU3
mp-557483,-3.756789695,YbClF
mp-555509,-1.813900036,Ho3CuGeS7
mp-643446,-2.279591824,Ca2AlH8S2Cl(O6F)2
mp-1018151,-0.421896017,NbPd2
mp-40134,-1.956104494,ZnSiH12(OF)6
mp-568225,-0.604067216,TbB4
mp-4598,-2.643589495,Sr4PtO6
mp-758357,-2.874786955,Li3Ti3(PO4)4
mp-29145,-0.538390472,H3N
mp-867878,-0.459621231,AlFe2Si
mp-763901,-2.350658455,NaVO3
mp-19313,-1.896342599,Zn(FeO2)2
mp-977207,-0.018635705,Li2Mg
mp-638226,-0.471186852,La2Ga12Pd
mp-558890,-2.962813962,BaLi(B3O5)3
mp-10379,-0.435194676,Hf3(Cu2Ge)2
mp-690136,-2.067113018,Mg4Al3(HO)17
mp-758224,-2.489178846,Li3Sn2(PO4)3
mp-753960,-1.704343092,Li2H2SeO5
mp-972808,-3.273834422,SiO2
mp-770944,-1.884803888,Li4Co2C4SO16
mp-780294,-2.489831563,Li3Mn2Fe(BO3)3
mp-979937,0.101958345,Yb3Ru
mp-13303,-0.797079548,ErSnAu
mp-555548,-3.174710645,MgAlPO5
mp-10166,-1.012964139,NaAlSe2
mp-744474,-1.620439266,Mo2P4O15
mp-756909,-1.636200761,TlGaO3
mp-861882,-0.396434404,LiGeIr2
mp-569114,-0.736060432,BaAg2SnSe4
mp-1076,-0.026178633,KB6
mp-22156,-0.711445934,Hf2InC
mp-10138,-0.49495422,Y(BRu)4
mp-770608,-1.988167424,Li3Mn3O8
mp-767363,-1.912723799,Li3Mn2(FeO4)2
mp-569320,-0.744869234,Sm3Ge5
mp-2243,-1.214192222,NbS
mp-978823,0.024397532,SmY3
mp-32688,-1.889579735,Nd2Se3
mp-1306,-0.403027816,ThAl3
mp-974883,0.074680219,Rb3Na
mp-11512,-0.72661197,LiAl2Ir
mp-16560,-1.49800873,KEr2CuSe4
mp-17129,-1.175465981,Sr3(AlN2)2
mp-976870,0.527611816,NaNi3
mp-22609,-0.599620277,Eu(CdP)2
mp-122,0,Ba
mp-567940,-1.302396674,RbPr6(CI6)2
mp-686050,-4.135811323,CePaO4
mp-540701,-0.480665473,V3As2
mp-773504,-2.45285612,V3Sb2(PO4)6
mp-28041,-1.169797837,Pb9(Br5O2)2
mp-1008524,-0.302314967,BeSe
mp-757547,-2.436104892,Li2Sn3(P2O7)2
mp-12651,-0.720344925,MgPt
mp-568121,-0.433017401,Mn4Si7
mp-865019,-0.900569635,HfGaRh2
mp-3009,-3.317795771,Rb2BeF4
mp-8377,-1.50237785,TeO2
mp-625367,-3.105160333,LuHO2
mp-571491,-0.384489391,HoB6
mp-7045,-2.17086259,RbGdS2
mp-778616,-2.457286267,VO2F
mp-10436,-0.380344502,Tb(AlSi)2
mp-550579,-2.789522629,ScTa(PbO3)2
mp-16826,-0.968191365,Yb5Sb3
mp-720985,-3.13131555,CaEr15Si8Se11ClO28
mp-977551,-0.050191781,ErLuMg2
mp-996990,-1.775237116,BaAgO2
mp-684989,-0.001455958,W9C4
mp-541483,-1.904509929,Rb3Sc(HO)6
mp-697833,-2.583836775,SrLaFeRuO6
mp-631345,1.009235845,KZr2Nb
mp-558632,-2.341210102,KNaSO4
mp-720509,-1.324292073,Li10Si(PS6)2
mp-558314,-2.072228531,TaBi4ClO8
mp-18857,-2.625168664,Sr2FeMoO6
mp-17101,-3.254442203,CaNb2O6
mp-25205,-2.032328763,Cu5(Si2O7)2
mp-569855,-1.281802514,MoCl5
mp-1007,-1.12855018,DySb
mp-779315,-2.806405685,VOF
mp-1009082,-0.31502023,MgSnAs2
mp-980014,0.04529141,TmTh3
mp-862725,-0.226858906,ScTc2W
mp-631619,0.645274714,KCaNi2
mp-766330,-1.700082332,Ba6CaI14
mp-746670,-0.975512514,CoH22C3(N3O4)2
mp-762401,-1.724989,LiCo(CO3)2
mp-22031,-0.810124476,EuSnPd
mp-19093,-3.042873354,Ba2UNiO6
mp-6252,-2.228666913,Sr2CuTeO6
mp-677283,-3.431932947,Sr4NdNb2Al3O15
mp-21080,-0.519520827,La(NiSn)2
mp-977408,-2.382217791,NbTlO3
mp-5353,-0.515503686,ErCo3B2
mp-18217,-1.190824672,K3AlSe3
mp-30864,-0.721268996,Y2Sn5Rh3
mp-772817,-2.219236816,Ba4Y2Cu5O14
mp-31158,-0.487884668,Ca7Ni4Sn13
mp-12580,-0.321319035,Li2CdSn
mp-861873,-2.600859371,TaTlO3
mp-756040,-2.998268274,Gd2HgO4
mp-530800,-3.804211697,Er2TiO5
mp-22256,-0.501962251,NdMnSi
mp-23062,-0.862814333,YCI
mp-849937,-1.234337344,Na3NiO3
mp-569066,-0.79272759,Cs2PdI6
mp-769589,-2.38466159,LiV3CrO8
mp-36007,-1.919614178,Ba(NdSe2)2
mp-13452,-0.507827173,BePd2
mp-15988,-0.423381673,Li2CuSb
mp-773953,-2.825814387,Ba2LaCl7
mp-2654,-1.451431033,Al2S3
mp-560671,-3.097695693,Rb2NaVF6
mp-979043,-0.242812587,Tm2CoCu
mp-541951,-1.042963107,Zr3P3Pd4
mp-561710,-1.104325795,CsSnS3
mp-779299,-2.481191363,Li3Mn4(BO3)4
mp-556097,-1.527985095,NaLi2(RuO2)6
mp-28695,-0.221268163,KSiH3
mp-770405,-2.041976874,BaLaBr5
mp-1005753,-0.437547415,Sm2AlGe6
mp-613327,-0.333285922,Fe(BW)2
mp-554282,-3.402748719,Lu3B5O12
mp-19281,-3.19777991,LaCrO3
mp-8002,-2.329280844,LiGaO2
mp-708961,-1.548114448,BeH8SeO8
mp-561382,-1.997186086,NbBi4BrO8
mp-754055,-3.004050138,CsErO2
mp-19111,-2.404959729,NaV2O5
mp-9514,-0.061398106,Mg(AlC)2
mp-570723,-1.032244023,La5Si5I3
mp-20821,-0.189914452,NpGa3
mp-14985,-3.092146302,KZrPdF7
mp-974057,-0.765386844,Lu2Ni12P7
mp-776320,-1.282316053,CuAsO3
mp-771958,-2.839284265,Ba3LaCl9
mp-22419,-0.914884576,NdSnPd
mp-863062,-2.502455119,LiSiBiO4
mp-676320,-2.031800704,In4(SnO4)3
mp-504371,-2.203008319,LiNi6P7O24
mp-961705,-0.100354902,TiPtPb
mp-20516,-0.361309223,InPt3
mp-973956,-0.312531633,Lu2CdAg
mp-11101,-0.755521329,LuInRh
mp-742,-0.116701334,Ti2Cu
mp-997004,-1.920976422,CaAgO2
mp-3479,-0.23731098,CaAl9Ni
mp-535,0.15380687,Fe4N
mp-540033,-2.552731994,LiMnP2O7
mp-752793,-2.435157615,Li2AgF3
mp-974690,-1.658194181,Rb2CuCl4
mp-27331,-0.801397059,K3GeTe3
mp-1018689,-0.409197934,ErZnIn
mp-774297,-2.655652578,Li3MnV(PO4)3
mp-556275,-2.539597905,Rb2Al2Sb2O7
mp-6699,-2.891437754,NaMgPO4
mp-574651,-1.334015083,CsSmMnSe3
mp-774368,-2.51047982,Li6Mn5Fe(BO3)6
mp-757490,-2.413844524,LiSnPO4
mp-691117,-3.284680704,SrLaTiMnO6
mp-558302,-1.597299338,Bi5BrO7
mp-568060,-0.576931218,Na4Ge2Te5
mp-567471,-0.314567027,HgI2
mp-680486,-1.175684057,W6CCl16
mp-999540,-0.360263707,MnSe
mp-754323,-2.854975127,TmBiO3
mp-18685,-1.12933477,SrCu2GeS4
mp-30099,-0.80025262,PdSCl
mp-756213,-1.320109419,Li8BiS6
mp-28968,-0.542830473,Nb3Te3As
mp-31277,-0.188553797,Sn4Ir
mp-3201,-0.54692146,Li2GaPd
mp-758527,-2.894029475,K3ErSi3(HO5)2
mp-8430,-1.445801296,KLiS
mp-568796,-1.599545033,RbYbI3
mp-774883,-0.819907214,LiFe3(SnS4)2
mp-30169,-0.284788902,Ba4Ni3Ge20
mp-557624,-3.411143556,CePO4
mp-7624,-3.71898031,Er2Si2O7
mp-559766,-2.927433616,Cs3LiF4
mp-567838,-0.359687043,La2AlNi9H
mp-755573,-1.109209245,Cs2O
mp-979953,0.647986275,Yb3Ta
mp-15588,-0.539867622,Ce(BRu)2
mp-6078,-2.509634565,Na2Cd3Si3O10
mp-569577,-0.568041024,Tb(SiAu)2
mp-24237,-0.767084894,ScH2
mp-757914,-2.851717424,Li3Ti2(PO4)3
mp-28810,-0.799720196,Na2CS3
mp-768309,-3.774044909,Ce2TiO5
mp-779105,-1.708588378,Cu6OF11
mp-772661,-2.466364151,Li4MnSn3(PO4)4
mp-22752,0.02171258,FeSn2
mp-774336,-1.174938722,Li3BiS3
mp-758145,-2.839497106,LiTiP2O7
mp-4703,-0.402363925,Th(Al2Fe)4
mp-2034,-0.015665384,W2C
mp-756251,-2.869659167,Ba2LaCl7
mp-5146,-1.320501494,Zn(RhO2)2
mp-3297,-2.002841801,Li10Zn4O9
mp-977218,-0.018065887,Li2Mg
mp-6297,-2.16088519,CaCu(GeO3)2
mp-17805,-2.257320754,Ba2SnSe3F2
mp-644307,-0.795181105,Ca(H2N)2
mp-24065,-1.943731071,CaB2H10O9
mp-864968,-0.335904111,MnInRh2
mp-27333,-1.204214598,Tl3CoCl5
mp-765222,-2.456053596,LiSn3(P3O10)2
mp-698710,-2.699516348,Sr4La4Mn7CuO24
mp-25433,-3.370957241,TiO2
mp-22267,-0.316416807,Y(MnGe)6
mp-561034,-0.853377808,Ag9Ge2IO8
mp-765679,-1.145280673,Na5(NiO2)6
mp-27370,-0.127426638,P10Au7I
mp-555123,-3.039442896,KMnF3
mp-579605,-2.309298445,Cs2KEuCl6
mp-11437,-0.553527225,Er3Rh
mp-20824,-2.06021223,Sr2CaTlCu2O7
mp-560240,-2.421682229,K2SbPO6
mp-29273,-2.392016497,Ca2Ge7O16
mp-642,-0.013913773,BaCu13
mp-21623,-0.716754378,ThFe5P3
mp-11488,-0.423512304,LaTl
mp-753940,-1.303168999,KLiMnS2
mp-707324,-0.619358966,PH6SN3
mp-3346,-0.791697577,HoZrSb
mp-755465,-0.865324787,Hg2Pt2O7
mp-34126,-0.125364744,Cu4SnP10
mp-30712,-0.248921856,Sm2Zn17
mp-989529,-1.978482726,KRb2InCl6
mp-20277,-2.534178729,RbEuO2
mp-27195,-0.870774122,In4Bi2S9
mp-11114,-0.425057564,KCuPdSe5
mp-762511,-1.875277897,LiFe2C2O7
mp-753363,-1.811197128,Li4Sb(TeO4)3
mp-569095,-0.291774477,Rb3Bi
mp-5512,-3.481044406,Sr4Al14O25
mp-975442,-0.460444267,NdErIn2
mp-763316,-1.962780273,Mn3O5F
mp-13064,-3.968785017,Dy2O3
mp-866138,-0.522057638,LuSbRu2
mp-672314,0.135122466,Mg3In
mp-865229,-0.57668097,Be2NiIr
mp-626553,-1.45484543,Ca(H8O5)2
mp-574684,-0.348349002,Na2SnAs2
mp-1013537,0.214200973,Sr3AsN
mp-982243,-0.40611607,Y3Sn
mp-675437,-0.69096901,GaGeS4
mp-33537,-1.860502168,Fe2MoO4
mp-972882,-0.277760245,Sc2CdAg
mp-705116,-2.696348389,Sr2MnMoO6
mp-863066,-2.921253509,Ta6Pb4O19
mp-861995,-0.404947376,PaNi2Sn
mp-764593,-2.734169153,Li3Fe3OF7
mp-557411,-3.166531674,KRb2VF6
mp-7876,-0.46828085,Ba(MgGe)2
mp-9660,-2.798363737,Sr2Cu(BO3)2
mp-972511,-0.530235222,Sm2AgSn
mp-1748,-2.359630996,NdS
mp-698567,-1.69007577,Cr(Bi7O12)2
mp-19497,-2.398060236,Na5Y(MoO4)4
mp-5438,-0.833251233,TmBRh3
mp-865428,-0.60884748,UP3
mp-978095,-0.445681216,Pr2CdPb
mp-30551,-0.22534169,GaFeCo2
mp-1019803,-3.37443352,KAl9O14
mp-19399,-2.349250589,Cr2O3
mp-31628,-2.157925677,CrReO4
mp-867115,-0.276413535,LiCd2Rh
mp-12020,-0.416001403,ErAl4Ge2Au
mp-13079,-0.269229235,Mn2AlCo
mp-29654,-0.174216719,B9H11
mp-720376,-1.24172707,H4SeO5
mp-1018755,-0.362915478,LaTlZn
mp-715617,-2.386889948,V6O13
mp-7420,-0.357958638,KHgAs
mp-16945,-0.775708919,Sr3(GaN2)2
mp-975666,-3.095130355,PrBrO
mp-38684,-2.173788442,Li2MgCl4
mp-19274,-2.704247574,BaPrMn2O6
mp-29890,-3.611758527,Th2AuF11
mp-684093,-2.541217959,LiBi(PO3)4
mp-557743,-3.881439365,KCaAl2F9
mp-15236,-0.400649614,CrSbSe3
mp-1190,-0.711419917,ZnSe
mp-541283,-0.83472245,InGaBr4
mp-21598,-0.391531016,SiNi2As
mp-567348,-0.849858266,TmInPd2
mp-2119,-0.188548049,TbC2
mp-649213,-1.574603115,Th6FeBr15
mp-29153,-0.994601034,Zr2NiP
mp-642157,-1.573836923,V2Cu3Pb(ClO4)2
mp-4536,-0.554873948,ScNi2Sn
mp-864766,-2.701011191,NaMgSO4F
mp-978911,-0.49522688,TbYHg2
mp-771914,-2.865636801,Ba3La2Cl12
mp-864633,-0.60385785,Nd2SnHg
mp-866637,-1.024480839,KPPdS4
mp-771580,-1.895755679,Li4Fe3TeO8
mp-866605,-1.839489183,Ce3SiAgS7
mp-699636,-2.469261994,KTb2Cu(MoO4)4
mp-3446,-3.827425005,SrTm2O4
mp-765090,-2.967383061,LiMnF3
mp-1008,0.222985548,NiHg
mp-582723,-0.490242809,Cs3AlAs2
mp-973342,-0.270291613,SbRh3
mp-9212,-2.946514592,NaAlO2
mp-6126,-2.328202028,LiCdBO3
mp-5606,-3.299303864,AlTlF4
mp-1019583,-3.415935855,CaAl2SiO6
mp-568836,-1.217335729,Ba3GeI2
mp-581857,-2.872088709,KBiF4
mp-721,-0.321073252,TbCd
mp-22343,-0.650846,Ce(GeRu)2
mp-510152,-0.671506698,DyNiSn
mp-30933,-0.372728615,ZrBi
mp-718,-0.518349909,SnPd3
mp-781081,-2.71178507,VOF3
mp-557059,-1.014931489,RbSnS4
mp-3267,-0.651836694,TlSb5S8
mp-770370,-2.629856212,V3BO6
mp-1028,-0.317255301,V3Te4
mp-9844,-3.270898894,BaAl2B2O7
mp-697726,-2.522700553,Li2CoP2O7
mp-767011,-2.44226677,Li7Mn3(SiO6)2
mp-850739,-2.531739306,Fe3OF5
mp-974638,-0.318688081,NdErZn2
mp-768241,-3.07636393,Dy2Ge2O7
mp-758632,-0.691500497,NaH2C2N3O
mp-510306,-0.747221176,Sc2CrB6
mp-541070,-0.738567948,Ta2NiSe5
mp-780325,-2.629968683,LiMnSiO4
mp-756297,-1.926189767,ZnIn2O4
mp-769615,-2.465415425,Li4V3CrO8
mp-2927,-0.23243459,LiAg2Sn
mp-776630,-2.471662752,V2O3
mp-9407,-1.426418763,Nb3SnS6
mp-669476,-2.769608876,Ba2ScCl7
mp-940,-1.766730711,GdN
mp-556596,-2.265181443,AlP3(HO2)6
mp-690866,-2.60547507,LiMnPO4
mp-697945,-1.545794523,K2CdH4(SeO5)2
mp-26342,-2.372667126,SbP2O7
mp-29020,-1.813135423,P4SeO6
mp-720868,-1.562259146,Ca2CdH24(ClO2)6
mp-776680,-2.282609516,TiMn2Ni3(PO4)6
mp-1038,-0.1414681,MgCu2
mp-23574,-1.361811988,SbPCl8O
mp-7825,-3.051921971,K2GeF6
mp-649453,-1.551406476,Ca3BCNCl2
mp-999293,0.651825676,PdN
mp-761765,-2.332526946,Li3Mn3SiO8
mp-1016881,-1.520857177,CdSnO3
mp-554781,-1.813227982,Tb3CuSnS7
mp-976823,0.032600856,LaPm3
mp-570961,-0.46532404,CdBiSe2I
mp-542443,-1.03292912,TlCr3S5
mp-697764,-2.572721561,LiFeP2O7
mp-562137,-2.208157938,KLiCO3
mp-21431,-0.397103749,HoIn3
mp-754079,-2.781928997,GdAsO4
mp-754455,-3.902700937,Sc2O3
mp-568449,-0.666792738,Sm2AlGe3
mp-705424,-1.691009868,Fe17O18
mp-505429,-0.506837662,Th(Re2Si)2
mp-5429,-0.729489058,Tb(SiOs)2
mp-30731,-0.885968175,HoSnPd2
mp-601292,-2.831262585,RbPrP3HO10
mp-16684,-1.707712851,PrCuS2
mp-570751,-0.147853629,Nb3Te
mp-764021,-1.934477967,NaMn2O4
mp-567389,-0.234042212,Li2ZnGe
mp-772617,-1.099118647,Zn(NO3)2
mp-640566,-0.469524029,Yb8Si11
mp-556084,-1.287531834,KClO3
mp-669720,-0.260443569,Ni3Sn2
mp-30871,-0.034457857,Ta3Sn
mp-19890,-0.001507528,URe2
mp-30826,-0.258889082,Pd13Pb9
mp-1007918,-0.886109678,DyAu
mp-17986,-2.272147698,TiTl2O3
mp-779766,-1.620856117,Ni2(SO4)3
mp-582753,-0.297560572,Tl2Te
mp-767774,-2.300333689,Mn2Fe3Cu(PO4)6
mp-570631,-0.794156416,U(FeP)2
mp-3472,-2.044719427,PbSO4
mp-773874,-2.256595227,CuSb3(PO4)6
mp-504909,-0.395517578,Ni2SnP
mp-976281,-0.301470822,Li3Pd
mp-30923,-0.601568795,Ga5Rh3
mp-42022,-3.376164607,Cs2RbZrOF5
mp-761608,-1.516479542,Li2CoNiO4
mp-20603,-0.231423035,CeTl3
mp-4808,-0.626719116,NdAgSn
mp-19387,-2.001906877,CdWO4
mp-1013795,-2.133459238,Li3Ge3(MoO6)2
mp-616228,-0.842911681,Te4WCl6
mp-8260,-2.164909113,NaGdS2
mp-1008610,1.498389349,AuN
mp-1479,-0.409676724,BP
mp-570125,-0.399850116,Hg2TeBr3
mp-7457,-2.588508258,SnF2
mp-30284,-1.386149257,HgAsO3
mp-27275,-2.569494206,Li3BO3
mp-31080,-0.632232705,YAlSi
mp-2536,-0.289808652,Ni2B
mp-552934,-2.286069066,Ba2CuBrO2
mp-631412,0.518918954,NbRu2Cl
mp-1020107,-1.357944477,LiCaAl3N4