id,band_gap,pretty_formula
mp-781595,1.1243,CoTe2O5
mp-1999,3.3462,Sb2O3
mp-773517,1.0471,ScMn2O5
mp-650336,3.4967,PCN2Cl3
mp-28336,1.7925,Li3P7
mp-21892,3.9425,Al2PbO4
mp-758492,2.8552,LiSb3(PO5)2
mp-29040,5.6196,Li3Zr4F19
mp-776767,0.2833,Li2VF4
mp-568493,2.0208,In3SnI5
mp-774074,1.844,Na2Sb4O11
mp-772295,4.5517,TmClO
mp-754658,1.2489,TeO3
mp-677371,2.3191,Sr4LaCl11
mp-603414,3.0244,Rb2TeH6SeO10
mp-7188,0.3106,Al2Os
mp-754808,2.4959,La2MgO4
mp-1019575,4.419,Ca4Al6SO16
mp-6224,4.6123,LiScSiO4
mp-686949,2.706,ThCr(IO5)2
mp-556374,1.895,K2U3(IO5)4
mp-15171,4.0029,K2MgSiO4
mp-19203,0.0637,BaCo2Si2O7
mp-867671,1.7238,ThNb4O12
mp-19090,2.6352,MnTeMoO6
mp-19296,2.8193,SrVSi2O7
mp-1019718,5.4195,CsBe4(BO3)3
mp-866468,1.5645,CrH9(BrN)3
mp-29344,3.6888,LiGaCl3
mp-561133,2.555,Sr5Nb4O15
mp-756762,4.5689,TbTmO3
mp-768918,1.4696,Ce(ClO4)4
mp-558105,6.4556,LiB6O9F
mp-559304,3.0031,Er2Te5O13
mp-19142,1.211,Mn2V2O7
mp-849219,0.4992,V3(O2F)2
mp-504953,2.0736,Na2As4O11
mp-624399,2.3586,CdI2
mp-11836,0.2098,ErSbPd
mp-849517,0.4683,Mn6O5F7
mp-770927,3.4924,Sm3TaO7
mp-2697,2.8589,SrO2
mp-23324,1.9974,BiSBr
mp-772400,4.1694,Li2W(OF2)2
mp-673633,1.0947,In2S3
mp-755132,2.6708,Zr3N2O3
mp-555002,6.0902,LiEr2S2O8F3
mp-24340,2.9804,K3GeH3S3O2
mp-643108,3.1051,Yb4Mg3H14
mp-25400,0.2339,Li2TiPCO7
mp-3216,1.5714,Li2ZrN2
mp-755448,2.0717,Rb2SnO3
mp-705743,2.1583,Ta2MnO6
mp-776334,0.9615,Ti2N2O
mp-753520,2.2212,Li3BiS3
mp-22747,2.7478,Pb(CO2)2
mp-32606,0.2217,Ba3P2
mp-8778,1.7616,Sm2Au5F21
mp-13703,3.8267,Al4CO4
mp-557722,1.478,LaSO
mp-768636,1.7318,LiBi2BO5
mp-556850,3.2831,BaMnF4
mp-768199,2.2652,Li3SbS3
mp-540118,0.3713,MnPO4
mp-14495,3.5116,Li6ZnO4
mp-705514,2.0297,SbHC3(NCl3)3
mp-662706,5.5367,SiO2
mp-760360,3.2899,Hf3N2O3
mp-20397,0.9303,Sr(InTe2)2
mp-24093,0.5918,CuH
mp-16264,0.6443,LiCaSb
mp-542031,1.8708,CrPbO4
mp-1019517,1.6017,Ba4Mg(SiN3)2
mp-675881,3.4802,RbBiF4
mp-23131,2.7553,Sr2BN2Cl
mp-707172,5.3502,K3P4H5O14
mp-21838,1.285,Ce(SeO4)2
mp-3538,1.1609,Hg3TeO6
mp-14334,2.2315,K2RbPdF5
mp-38970,0.6164,Ga2Te3
mp-647557,2.8612,ZrPbO3
mp-682548,2.6624,Cs5Te3H4NCl18
mp-23037,2.3955,CsPbCl3
mp-24606,4.5333,Rb2MgH8(CO5)2
mp-557910,2.3762,Cd2PO4F
mp-16834,2.1407,Zn3(AsO4)2
mp-779765,2.9851,Li8Mn5Fe3(BO3)8
mp-19199,2.1603,BaSm2NiO5
mp-4309,2.5798,BaGa4S7
mp-755802,2.5286,K2MgO2
mp-558373,2.8327,PrNb3O9
mp-707368,4.5052,KP2H8SN7O2
mp-1852,0.7521,UF5
mp-1550,1.6302,AlP
mp-540795,3.8006,Ba3SrTa2O9
mp-540634,3.6578,TaTl(GeO3)3
mp-722243,0.788,Na2CuH4(C2O5)2
mp-672334,1.4465,Sr4GaCN5
mp-560731,2.7394,Ba2Ti9O20
mp-772395,2.2158,LiV(OF)2
mp-7596,1.5542,NbNO
mp-723021,3.2579,Ba(HO)2
mp-776757,2.5927,Li4Co2Ni3Sn(PO4)6
mp-554445,2.681,Bi5IO7
mp-676804,3.544,Ho3TaO7
mp-758033,4.0092,Y13Ho19O48
mp-777673,3.6435,Li2FeF4
mp-12243,5.6568,Rb3SiF7
mp-775166,0.7347,Li2TiMn3O8
mp-7027,2.6552,InBO3
mp-12221,2.2537,CaTeO4
mp-504354,5.1179,LiBi(PO3)4
mp-772565,1.8815,Li2Fe5B3O13
mp-3120,0.3097,Tm2Cu2O5
mp-38017,0.6222,Na2PtO3
mp-14613,0.3102,Pr10Se19
mp-774444,1.2431,Li2Mn3(SiO3)4
mp-777460,0.6786,MnPO4
mp-28130,0,Nb(PS4)2
mp-558025,5.671,SiO2
mp-558169,6.9051,NaCaAlF6
mp-691,0.5616,SnSe
mp-18809,2.155,Li2VGeO5
mp-763114,0.0744,Li3Cr2(CoO4)2
mp-560459,4.4173,Rb3Al2(PO4)3
mp-17973,4.3869,Cs3GeF7
mp-778001,5.075,Tm(ClO4)3
mp-754236,3.6749,Y2GeO5
mp-19391,2.0085,NaVO2
mp-642725,5.3271,CaHClO
mp-753378,3.2929,TaGaO4
mp-979271,0.5101,TbAgSe2
mp-13336,0.3268,RbSc5Te8
mp-772180,3.0863,LuScO3
mp-600045,5.4237,SiO2
mp-19173,1.0211,UMnO4
mp-772232,5.6294,Tm2P4O13
mp-672976,3.8599,LiSn(PO3)3
mp-558200,5.3291,SiO2
mp-555543,2.025,ZnS
mp-28268,0.3705,PtI3
mp-8212,0.2549,Cd(PtO2)3
mp-554053,3.7453,SrGaBO4
mp-626529,3.4786,H7NO6
mp-772125,2.996,NbPO5
mp-625391,4.304,NaH3O2
mp-753946,0.6706,LiCoS2
mp-553981,2.0285,RbMnF4
mp-18003,1.7616,CsCuS4
mp-532091,1.2783,Na26In4O19
mp-735523,1.3477,Fe3PH6PbSO14
mp-9780,0.3206,RbHfAgTe3
mp-780630,1.4244,LiVP2HO8
mp-886,2.0084,Ga2O3
mp-4342,1.4763,KNbO3
mp-29943,3.541,H5NO5
mp-505391,0.3108,Li6CoCl8
mp-561257,3.7058,LiPr2C2N4F3
mp-567798,0.9168,Hg4AsI5
mp-675818,0.2879,Li11TiAs5
mp-646192,1.3757,NaCrF6
mp-30140,4.1401,BeI2
mp-722866,4.5824,SbH6CN3F4
mp-977148,4.4038,LiBeH3
mp-9077,5.0258,Nd2Be2SiO7
mp-754349,3.1402,GdOF
mp-752715,2.1949,Ba3(ClO)2
mp-554239,3.0942,NaSbCO2F3
mp-541654,1.0119,ReSbOF9
mp-696216,2.7266,HS3N
mp-561751,2.1624,CsErS2
mp-29694,0.8103,KAuBr4
mp-763785,1.8294,LiMn2OF3
mp-555390,2.4385,TcO3F
mp-662810,3.6802,Na5Lu(SiO3)4
mp-989533,4.3089,NaTl2InF6
mp-754466,2.0548,Li2AgF3
mp-13067,4.146,Tm2O3
mp-777669,3.3555,Li2FeF4
mp-769173,4.4364,PrOF
mp-769580,2.133,V3(PO4)2
mp-768411,4.1639,Dy2SiO5
mp-17612,4.6289,Ba2SiO4
mp-28303,1.7564,Na3SiSe4
mp-559212,2.7986,RbReSO3
mp-556258,4.3245,Na3BeAl(SiO4)2
mp-755399,0.2364,Li2CuSnO4
mp-752439,3.8301,BaSr2I6
mp-23070,4.8829,BaBrF
mp-720739,4.7827,ZnP2H6O5
mp-27314,3.1323,SbClF8
mp-29598,4.2315,NaP4N7
mp-15782,2.2852,KPrS2
mp-752561,1.3197,SbO2F
mp-1018099,1.1077,Ba2NCl
mp-775907,3.5727,Y2O3
mp-850427,3.0371,LiMnPH2O5
mp-37091,1.501,Sr(AlTe2)2
mp-27063,1.4077,Li2CuPO4
mp-760492,0.8101,Na4PtO4
mp-775802,1.7374,Zr2N2O
mp-560549,1.3479,AuSeClO3
mp-19180,2.2771,VFeMoO7
mp-27522,3.8271,K2Zr2O5
mp-864617,2.0136,NdI3
mp-557552,1.046,Sr2CuF6
mp-677073,0.6926,K2I2O3
mp-762371,3.9142,NbOF3
mp-759673,4.1975,LiBiP2O7
mp-10159,0.6773,K3Sb
mp-778397,3.0464,Li2Sn(BO3)2
mp-569812,4.0803,BaN3Cl
mp-776058,1.7379,Cr2Fe3Co(PO4)6
mp-556393,5.1698,RbBe4(BO3)3
mp-1019555,5.2185,BaNaLi3(BO2)6
mp-770530,2.5939,Li14Mn2O9
mp-555812,1.732,NaSr3BiO6
mp-996984,0.5702,AgClO2
mp-6815,0.5601,Ti2Cu(PO5)2
mp-555914,4.8824,K2CaP2O7
mp-38322,3.4705,Mg(IO3)2
mp-12894,3.0185,Y2SO2
mp-561974,2.7613,Zr7(NO2)4
mp-557183,1.7774,KNaZnO2
mp-556894,1.5453,Rb2SbAuS4
mp-8710,1.075,Ca2Pt3O8
mp-24802,4.9047,Sr2Al3Si3HO13
mp-720494,3.584,K4TeP4(HO2)10
mp-706658,4.7872,Mg3P2(H22O15)2
mp-644334,2.918,K2CoH4(SeO5)2
mp-567515,1.4655,Rb2Hg2PdBr8
mp-722900,3.4121,CaH3NO5
mp-998710,1.8305,TlHgF3
mp-696387,4.9826,CaMg2H24(ClO2)6
mp-754388,3.2826,BaSrI4
mp-22328,1.6772,K4PbO4
mp-28582,5.9732,CsB3H8
mp-554572,2.804,K3NbP2O9
mp-8850,0.7389,Dy2S3
mp-697278,6.6002,NaCaAlH2OF6
mp-22932,2.8234,KInBr4
mp-676348,0.2857,NbAg7S6
mp-25975,2.2336,LiCu(PO3)2
mp-704306,1.6901,K2U2MoO10
mp-30097,0.8465,Bi2Te7Cl8
mp-18377,2.0316,ZnS
mp-19349,1.0163,NaMn(SiO3)2
mp-19209,3.6181,LiAl(MoO4)2
mp-767631,2.5276,Li3VF6
mp-621112,1.785,Cs5Nb2S4Cl9
mp-697878,0.7225,KCo2H3(SeO5)2
mp-849379,0.4611,Fe10O9F11
mp-774362,2.6097,Li6Mn5Fe(BO3)6
mp-504882,1.7639,CaSb10(S3O5)2
mp-4609,5.3034,HfSiO4
mp-15600,5.5109,K2Ca2(SO4)3
mp-14354,4.7092,Rb2SrP2O7
mp-770518,0.7629,Li4Ti3Mn3(CoO8)2
mp-769381,4.5215,Ca3Ta2O8
mp-554923,2.6756,Sr(GaO2)2
mp-541513,2.2356,NaGdTiO4
mp-2416,7.5338,YF3
mp-24215,3.1435,ScH3Br3N
mp-554929,2.3882,CsNdNb2O7
mp-850919,0.6204,Li2MnCr2O6
mp-764968,3.5128,InPH5NO5
mp-755416,3.6065,HoGaO3
mp-554311,1.4146,RbCrF6
mp-14678,4.2713,Y3Sc2Al3O12
mp-849720,1.6533,LiFe4(BO3)4
mp-27691,1.2017,K2PtBr6
mp-772744,5.3694,Tm2P4O13
mp-31105,0.3793,RbBi
mp-685195,3.5566,SrLaTl(AsO4)2
mp-567680,4.5724,BaCl2
mp-759449,1.5191,Li3Ag2F5
mp-22869,1.3631,ClO3
mp-505110,0,FeCuO2
mp-722381,3.1143,CdH4S2O5
mp-558087,4.3067,Na2Ca3(Si3O8)2
mp-4721,1.2194,RbSb3Se5
mp-561462,5.0451,Ba2Nd2Si4O13
mp-22264,1.4474,CsSr2Nb3O10
mp-866639,0.1843,KSr2Cd2Sb3
mp-23066,1.8261,Pb5(SI3)2
mp-19012,1.1542,CaMoO3
mp-541568,2.1278,Sr2Li3NbN4
mp-754848,2.3772,Na2SnO3
mp-559139,4.6948,H8C3N2O
mp-8271,4.9532,Ba2Ca(BO2)6
mp-558807,2.1934,ZnAgPS4
mp-1020145,4.003,Na2Ge(S2O7)3
mp-6984,1.0301,K2SiAs2
mp-770958,0.7344,Li4NbFe3O8
mp-760054,2.4898,Sn9(O2F5)2
mp-570844,0.7349,Ga3Os
mp-19469,3.938,Na5Tb(MoO4)4
mp-15472,0.9262,Ba4LiCu(CO5)2
mp-555073,3.1501,La3As2ClO7
mp-780127,1.0722,Li9Mn2P4HO18
mp-30905,2.5259,Ba3(BN2)2
mp-5546,0.5983,Cu8GeS6
mp-9066,3.8891,NaLi2AsO4
mp-557560,5.2109,LiH4SNO4
mp-763434,2.3193,Li5MnO3F
mp-23384,3.7256,LiIO3
mp-568020,1.0749,Tl3SiTe3
mp-765294,6.4717,SrP2(H2O3)2
mp-703516,2.5152,K2TiH2O3F4
mp-1342,2.0906,BaO
mp-8446,1.1422,K2CuP
mp-18807,2.3404,V2Zn2O7
mp-780330,2.7882,Li2MnP4H3O14
mp-15004,4.4546,Ca3ZrSi2O9
mp-14133,3.4625,Gd3Al5O12
mp-671913,1.0898,MoSe2Cl4O
mp-28029,0.3853,TcP3
mp-776566,0.44,Li4Mn3NbCr2(PO4)6
mp-640614,0.4725,In2Si(AgSe3)2
mp-561531,4.5955,Y2Si2O7
mp-19252,2.9074,K2NiO2
mp-556151,4.8963,H9C3N3O2
mp-759099,2.9069,Li3Sb(PO4)2
mp-557635,1.5148,Sb2TeSeF10
mp-17500,2.3384,GdPtF7
mp-14416,4.4244,Sm2Be2GeO7
mp-675146,1.7105,Pr2PbSe4
mp-704731,2.0513,KMnO4
mp-17324,0.9959,ZrSnS3
mp-510341,0.9776,Cs3Ge4Au
mp-622262,1.0895,Te6MoBr3
mp-997102,1.1633,KAgO2
mp-19103,2.6925,LiCrP2O7
mp-23592,0.6327,Ag2Hg7(As2I3)2
mp-779502,1.605,Na3CuO2
mp-984716,3.5185,CaSn4(PO4)6
mp-706630,3.558,B5H7
mp-6680,2.2015,RbCa2Ta3O10
mp-618177,4.4076,K2ZnCl4
mp-628185,1.4211,K3NaSn3Se8
mp-12245,3.037,Rb3TiF7
mp-559145,5.662,AlPO4
mp-779294,1.1268,Na3Sb5O14
mp-3915,2.2723,BaHgO2
mp-6097,4.8284,Li3Al(BO3)2
mp-23645,4.1775,KBiS(ClO2)2
mp-31036,0.7424,CuTe2Br
mp-642845,2.7538,Rb3H5Pt
mp-23989,3.1178,GdH12(ClO2)3
mp-699552,2.8897,KMoCl4O
mp-29820,2.188,Ca3(AlN2)2
mp-849522,0.3846,Li8V3P8O29
mp-28112,2.9912,In5Cl9
mp-6711,7.0872,Na3Li3Al2F12
mp-867577,4.3719,NaAl11O17
mp-15519,5.0387,NdZn(BO2)5
mp-27228,1.5876,Tl6Si2O7
mp-556171,2.413,CdP2Xe5F22
mp-686015,2.7947,Ca3(PO4)2
mp-31037,0.837,CuTe2I
mp-769222,0.9585,Dy2Pb2O7
mp-560799,5.7378,NaNdH2S2O9
mp-35205,1.6045,LiErSe2
mp-19481,2.9534,Rb2V(PO4)2
mp-559756,4.2587,PrScO3
mp-555797,1.6141,Zn4As2O9
mp-1019531,3.5604,BaAl2Si3(NO)4
mp-541482,0.2707,BaCeC2O6F
mp-19145,0,Ca4Al6WO16
mp-774092,1.1159,Na3CoO3
mp-6392,5.5745,NaBePO4
mp-756490,1.8508,Li6MnS4
mp-16904,1.402,Ba2CdTe3
mp-27673,0.8658,TaPS6
mp-767609,2.2185,LiVF5
mp-11634,1.6287,KSmGeSe4
mp-27896,8.1319,BF3
mp-774366,2.713,Li3MnFe2(BO3)3
mp-542623,0.9482,Tl2SnS3
mp-10809,0.435,AgSnF6
mp-28014,4.3774,H5BrO2
mp-763104,3.5875,Li2MnF4
mp-989629,5.5428,CsRb2GaF6
mp-768774,3.5047,LiBi4B3O11
mp-772838,3.8063,Er(ReO4)3
mp-626558,2.6828,Ti3H2O7
mp-558543,3.1201,Ca(CO2)2
mp-6568,4.687,BaCa(CO3)2
mp-780259,3.3998,Li5LaO4
mp-8269,1.2348,Lu2CdS4
mp-551918,2.917,AlBiO3
mp-764566,1.2394,LiFe8(BO3)8
mp-706657,4.2698,Al13Si5H18ClO38
mp-763203,0.9406,Li2VO2F
mp-540877,1.1154,La3InS6
mp-10556,1.8082,Sr2LiReN4
mp-625809,2.4787,Ba(H2O3)2
mp-27316,5.6715,Rb5Zr4F21
mp-38725,6.3332,NaBH4
mp-770553,1.6087,Li2AlCoO4
mp-849796,3.278,NaZn4H18SClO16
mp-4481,4.1994,Ca2SiO4
mp-557025,3.6435,K2SeO4
mp-18839,0.5583,Pr2NiO4
mp-780240,3.2681,Gd2P4O13
mp-28347,1.1862,K3Al2As3
mp-652776,2.8654,Rb2V(PO4)2
mp-755142,3.3784,La2MgO4
mp-648469,1.8205,SbP2SN3Cl10