id,formation_energy_per_atom,pretty_formula
mp-7941,-2.144648986,Li6TeO6
mp-19035,-2.258472865,BaFeO3
mp-772528,-1.731212109,MnZnO3
mp-697180,-0.075559043,Mg3In
mp-974432,0.558175866,Re3Sn
mp-558539,-2.472156693,Cs2Ba2(CO3)3
mp-773024,-3.165984181,LiCa2Nb3O10
mp-769365,-1.323919541,ZnSeO4
mp-2806,-0.664681307,YbSn
mp-1175,-1.516181836,SrS3
mp-29936,-0.758191486,Rb2PdI6
mp-972320,-0.483752517,UNiB4
mp-865014,-0.098669553,Mg2Cu
mp-777082,-2.348840131,TiNi3Sn2(PO4)6
mp-568,-0.391348074,TiSb2
mp-760402,-2.412324295,TaRhO4
mp-16644,-0.882085453,PrMgPt
mp-540949,-3.281637995,Ba3SrNb2O9
mp-580155,-0.540006159,U(Cr3P2)2
mp-977382,-0.27951617,Ta2VRu
mp-683906,-0.365883436,Yb5Cu11Sn8
mp-16819,-1.647912152,ZnTeO3
mp-6880,-1.931843941,Sb2OsC6(OF2)6
mp-866094,-0.195867196,HfZnCu2
mp-677093,-0.929671661,Cr(InS2)2
mp-697806,-1.752555073,Ni3(PO4)4
mp-983365,-0.062139781,K3Hg
mp-772141,-1.675604074,Ba2LaI7
mp-28730,-1.229280188,In7Cl9
mp-27741,-0.137425963,TeAuI
mp-759861,-2.842930131,Yb2P4O13
mp-5792,-0.440856639,BaCuSn2
mp-567478,-0.458125165,MnSbSe2Br
mp-19965,-3.228083315,K4BaU3O12
mp-17323,-2.822182715,TbCu(BO2)5
mp-17325,-0.619401571,Ba5Sn3
mp-756721,-1.647288091,NaBi5O8
mp-697815,-2.127201861,Cr(PO4)2
mp-752420,-4.313801504,Ba3Y2F12
mp-763248,-2.11503921,V4FeO12
mp-998151,-2.176985249,CaTlCl3
mp-2653,-1.3785638,BN
mp-554704,-2.80220391,TiPHO5
mp-767945,-1.761519991,Mg7Co17O32
mp-570610,-0.59210556,CdI2
mp-755428,-1.575694149,Rb3ClO
mp-2983,-1.051935673,Ba(PN2)2
mp-29910,-1.987498029,Sr4I6O
mp-542115,-1.036685699,Hg3Se3O10
mp-571216,-0.504173477,Sr3(AlGe2)2
mp-30668,-0.168473164,Ta5Ga3
mp-776641,-1.553225835,Na5CoO4
mp-30840,-0.60404691,Ti2Pd3
mp-568029,-0.410302511,Mg15Si2Ir5
mp-570245,-0.662557684,Ba2GaGeN
mp-561424,-3.671745971,KAlF4
mp-975050,0.914817705,Rb3Co
mp-4376,-4.064777319,BaAlF5
mp-1001837,0.245654489,MoP
mp-16234,-0.4366959,CsAg3Se2
mp-557853,-1.533163466,TiH8C4NO10
mp-972751,0.538566517,Si3Ge
mp-9668,-2.23891671,Ba3TiS5
mp-30292,-1.81556413,Nd4Se3N2
mp-569168,-0.991254501,Ba6NaCu3Te14
mp-10898,-0.627091459,ScAlNi2
mp-769045,-3.191396405,HoGaO3
mp-621852,-0.662857251,La2Ge5Ru3
mp-2093,-0.161209624,Pr3Al
mp-209,-1.879698778,Er2Se3
mp-19172,-2.381848832,KV3O8
mp-767572,-2.949499638,Li2MnF5
mp-581736,-0.759423438,Eu(SiRu)2
mp-19189,-1.636795587,K2Co(SeO3)2
mp-26390,-2.856988872,Nb2(PO4)3
mp-996979,-1.747405607,BaAgO2
mp-31452,-0.303421525,ZrNiBi
mp-20146,-0.56861334,Zr2Ni2Sn
mp-780440,-2.425569209,Li8MnFe7(BO3)8
mp-867287,-0.410951191,LiInAu2
mp-865232,-0.17012942,TlPd2Au
mp-1018141,0.179804624,BaC2
mp-766023,-2.599769009,Li2Cu2Si4O11
mp-560936,-3.118862754,Rb2NaCrF6
mp-974038,-0.085552794,Ni2W4C
mp-769073,-3.008097886,Na2LiTi3Al(PO4)6
mp-559068,-1.416684221,Na2Pd(SeO4)2
mp-11974,-0.909355797,TmSnRh
mp-560098,-1.857103277,SbO2
mp-28395,-0.29105566,B6P
mp-765721,-2.274425292,Na4V3O8
mp-569346,-0.147379915,CuI
mp-781613,-1.602010347,Li4Fe3Co5O16
mp-17650,-1.381945617,KGaS2
mp-632692,-2.444813394,LiFe4(PO4)4
mp-769460,-1.943098435,Li9Mn12Ni3O32
mp-560468,-1.875747402,Pr3Si2S8Br
mp-775335,-2.155173311,Li2Cr3FeO8
mp-22758,-0.772275043,U(SiIr)2
mp-28534,-1.510118787,CaInBr3
mp-3731,-2.914953493,LiNbO3
mp-569267,-0.795775012,Ca2CdSb2
mp-759882,-0.888829543,AgBH8C4(N2F)4
mp-16795,-4.052759805,CaAlF5
mp-541569,-1.07082028,Sr2Li3TaN4
mp-865808,-0.399376191,LiNd2Ir
mp-631546,0.926915808,TlCoBi
mp-17987,-3.468535469,Tb11O20
mp-13435,-0.393212878,CeMgNi4
mp-1649,-0.081158685,Fe3Pt
mp-2324,-0.347205255,PrCd2
mp-673023,-2.555234738,LiBi(PO3)4
mp-752888,-2.328274096,Li2CuSiO4
mp-583553,-1.369227835,Mo6PbCl14
mp-631502,0.383226142,CrNi2Hg
mp-6962,-0.759451598,Ba(AsPd)2
mp-756912,-2.390266411,LiZnBO3
mp-604459,-2.365204616,Li2B4H4O9
mp-12678,-0.223748532,TaMn2
mp-557900,-2.051014452,SbCSCl2F9
mp-560297,-3.217192913,LiTaSiO5
mp-607,-0.285989755,CeRu2
mp-510099,-0.109737775,In3Au10
mp-31739,-2.574141527,Li2CrP4O13
mp-16184,-0.513817382,Rb2B2Se7
mp-505815,-1.590909936,CsLa2CuSe4
mp-766881,-1.312553488,H7SIO10
mp-973920,-2.706446957,Lu2Ta2O5
mp-13074,-0.409322941,LuNiPb
mp-569813,-0.306107312,In5AgTe8
mp-568336,-0.931220887,Lu2Si5Ir3
mp-866062,-0.802992501,HfSiRu2
mp-971891,-0.381228145,Zn2PdAu
mp-552056,-1.598383957,PbCClO2
mp-672339,-0.133763721,Ag2Hg7(P4I3)2
mp-684503,-2.522200825,LiSn(PO3)3
mp-1006132,-0.011262524,Hf3Pb
mp-753649,-2.774801783,LiZrPCO7
mp-769036,-1.450238031,Li8Nb2S9
mp-1019108,-0.704476147,SmCoSi
mp-607990,-0.772338278,Hf2Co3Si4
mp-3503,-0.923266125,Li6WN4
mp-8177,-1.726025674,HgF2
mp-23508,-1.669318628,Rb2CuCl4
mp-634434,-0.45834386,NaHCN2
mp-561356,-3.026902447,Cs2UP2O9
mp-772417,-2.170195994,Li4V3Fe5O16
mp-643,-4.391779149,ThO2
mp-567598,-0.913803235,Dy7(TeIr)2
mp-769533,-2.539538306,LiMn(PO3)4
mp-541754,-0.411531148,TiCu2Te3
mp-600154,-1.543700507,K2CuH8(CO3)4
mp-20405,-0.233528275,V2Ga5
mp-24058,-2.215103459,AgBH2OF4
mp-754184,-3.71559025,ErAlO3
mp-5679,-1.953644277,CdSO4
mp-14001,-1.002436281,Ba4SiAs4
mp-37501,-0.000974211,In10Sb9Te
mp-758070,-1.849445817,LiCu2PO4
mp-760690,-1.983980618,Li8TeO6
mp-1719,-1.43796634,PuN
mp-631533,1.882845223,PPbW
mp-628951,-2.594608426,V2P2O9
mp-12846,-0.617210135,YbGaGe
mp-675426,-4.204427479,Ba3PrF9
mp-764559,-2.361897172,LiFe2(BO3)2
mp-756432,-1.936457908,Li2Ti(TeO4)3
mp-559702,-3.446821764,Pr2Ta2Cl2O7
mp-558226,-1.359669738,H2O
mp-5688,-0.679781419,Er(FeSi)2
mp-763194,-2.435364101,LiMn2(BO3)2
mp-569788,-0.242383646,LiZnGe
mp-19867,-0.554201028,NpAs2
mp-570561,-0.711361965,Dy2MgSi2
mp-865793,-0.552245688,LiSc2Rh
mp-558831,-2.296228409,KNdPdO3
mp-23803,-1.937777323,GaHO2
mp-1878,-0.185246086,HfBe13
mp-553977,-2.561225095,K4NpS2ClO10
mp-623087,-0.292805508,Re3(TeBr)7
mp-757325,-2.826229487,Li3Ti(PO4)2
mp-769287,-2.07198309,Li2TiS2O
mp-557055,-1.094688097,CuClF10
mp-999130,-0.439467728,TbNi
mp-770209,-2.74300915,Li3Ti(BO3)2
mp-680677,-0.180876939,Sn3Ru2
mp-977535,-0.33321304,ErAlAg2
mp-18901,-1.424416404,VAgHgO4
mp-1018160,-1.623611705,PmN
mp-770703,-2.082320221,LiSbWO6
mp-767304,-2.947330933,LiMn2F6
mp-19955,-0.178592899,Co2CuGe2
mp-569748,-0.503047785,ThFe2SiC
mp-559257,-1.167242591,AgTeO3
mp-36223,-2.422831818,Ba(PrS2)2
mp-14216,-1.931078637,Ga8(Pb3O7)3
mp-760819,-1.754538528,LiAg2F6
mp-558042,-1.823959429,Sm3CuSnS7
mp-5488,-2.078447468,LiInO2
mp-24092,-0.759602049,GdH2
mp-862898,-0.667387866,PmCdPd2
mp-27484,-0.825547493,Tl2O
mp-560165,-1.374635814,Cu(BiO2)2
mp-558198,-2.158562349,Na2Cd(SO4)2
mp-17894,-1.442277737,Rb3Sm(PS4)2
mp-771495,-1.867379912,Na6Co2As(CO4)4
mp-1007819,0.325788295,CoW
mp-4364,-0.30433394,NbGaCo2
mp-862937,-0.338856369,PmMgZn2
mp-979939,0.748095375,Yb3W
mp-2580,-0.763928363,NbB
mp-9324,-0.816756606,Ba3MnN3
mp-865796,-0.639986784,LuCdRh2
mp-505121,-0.77478296,Na2Hg3S4
mp-5065,-3.375904152,Al2SiO5
mp-769604,-2.342820824,K2MnPCO7
mp-774749,-2.6571592,RbNa3Li12Ti4O16
mp-24354,-1.140493499,H7Se2NO6
mp-643702,-0.288907191,Cs3ZnH5
mp-570530,-1.227043486,Cs(BCl)6
mp-18972,-2.979825502,Sr2VO4
mp-19310,-1.174664459,Na3Co(NO2)6
mp-567653,-0.412056131,Ti3Ni4
mp-531712,-1.881467657,YbPr11Se16
mp-413,-0.798374128,UP2
mp-14817,-2.846100024,PrP5O14
mp-780243,-2.225886002,Li5Ti2Cu3O10
mp-24341,-0.192895433,CsBeH3
mp-762307,-3.998582778,Y7HoO12
mp-32531,-2.836304233,Ba2V3O9
mp-554185,-3.128290289,AlPO4
mp-29400,-1.628104925,CsFeCl3
mp-720712,-0.629660051,Cr2H24(IN3)3
mp-674355,-0.799563154,Co(NiS2)2
mp-16929,-1.490742105,Pr3Si6N11
mp-1017509,-0.248086254,MgNiH2
mp-2898,-1.480385706,Ca(AuO2)2
mp-11651,-1.931350407,Yb3SnO
mp-7283,-0.57153649,LaB4
mp-759926,-2.916954327,Li2Ti(BO3)2
mp-621092,0.035474455,Tl2Pt(CN)4
mp-5777,-3.510485217,BaTiO3
mp-557016,-1.045872311,TaP4S6Cl5
mp-698690,-2.368067459,NaCaGaSi2O7
mp-34011,-2.443100445,Ca(HoS2)2
mp-764512,-2.3678734,Li5Fe8(BO3)8
mp-11738,-1.561570475,Na3PS3O
mp-17666,-3.116054412,Nd3OsO7
mp-759235,-2.446858949,Li2CuF5
mp-27442,-0.766544664,RbCrI3
mp-505001,-1.49879907,Rb3ZnBr5
mp-762501,-1.46945057,CaH8(NO5)2
mp-976793,-0.311806655,LiEr2Ga
mp-773192,-2.728036616,Gd2(WO4)3
mp-976847,-0.140910328,Ni3Sb
mp-24741,-1.624789215,ScH3NCl3
mp-7703,-3.760703166,DyTaO4
mp-755026,-2.391935582,La2Pt2O7
mp-972640,-0.327761816,SmDyZn2
mp-778729,-2.557945901,Mn3(OF2)2
mp-642740,-0.595597595,CsLi(H2N)2
mp-26675,-2.509330377,LiSb(PO3)4
mp-780569,-3.224124786,Ba8Nb7O24
mp-556047,-1.05229973,K2OsCBr5O
mp-19284,-0.678841514,NiAgO2
mp-557103,-2.581981873,B5Pb2ClO9
mp-16531,-2.143779764,BaLa2FeS5
mp-530953,-3.795064122,Ho2TiO5
mp-631440,0.943670415,BiTeIr
mp-867932,-0.773454696,Sm2MgGe2
mp-570791,-0.204885496,SiC
mp-1565,-3.76769427,ZrO2
mp-541750,-1.937363708,CsS2N(O2F)2
mp-540578,-2.031293844,Cs2ZnCl4
mp-6037,-3.060252079,Ba2SmSbO6
mp-774245,-1.941824207,Li5Mn5(NiO6)2
mp-541025,-1.79073866,Ca3SiH30CSO25
mp-754211,-3.620460319,SrLa2O4
mp-540439,-2.482833138,Mn(PO3)3
mp-554819,-1.928878954,MgP4(Cl5O3)2
mp-30439,-0.2065029,Ta6Be15Cu8
mp-3579,-0.796058481,UGeSe
mp-758829,-3.336906791,Nb2OF8
mp-553907,-1.122409471,Rb3AgO2
mp-867334,-1.632033575,KYGeS4
mp-767636,-2.286592192,LiMn2O3F
mp-17037,-3.150212801,Rb2Ti(SiO3)3
mp-770686,-2.717677236,Li3MnAl2O6
mp-634751,-0.648375542,YbH2
mp-861978,-0.743531829,Hf2ReIr
mp-18469,-3.143060738,SrMgP2O7
mp-777151,-2.798685939,LiFe2F7
mp-11606,-1.995247231,KHo2CuS4
mp-11547,-0.666150717,YTlPd
mp-19997,-0.367894317,EuIn2Ni
mp-1019740,-0.87196243,GaB3N4
mp-31163,-0.893382775,Ce2Si3Rh
mp-571363,-0.902244667,YbSbPd
mp-758731,-2.539472588,Li3Bi(PO4)2
mp-557130,-1.626022953,Zn2TeCl2O3
mp-861595,-0.245215693,Pr2CdCu2
mp-769636,-1.893205372,Li2Cu2(SO4)3
mp-775131,-2.224048596,Co3Sn(PO4)4
mp-936,-0.09757858,Hg4Pt
mp-9425,-2.330695784,Sr2GaCuSO3
mp-779435,-1.755377184,Ga3NO3
mp-10904,-1.046696736,AlPt
mp-554160,-2.421599803,K2CuP2O7
mp-32927,-3.507445859,Tb2O3
mp-767679,-2.30405455,Li8TiMn3O12
mp-505700,-0.907217879,KInSe2
mp-504946,-2.789054593,Nb2P4O15
mp-998762,-2.618346364,MnTlF3
mp-555699,-1.58639296,BaLa(BiS3)2
mp-758259,-2.190383354,Li4Ti3Cu3(TeO8)2
mp-28126,-0.547620037,K2GeTe4
mp-978279,-0.007810947,Mg3Cu
mp-865867,-0.25089105,Li2YTl
mp-23355,-0.988141906,PAuCl4
mp-556442,-2.091812708,Tc2O5F4
mp-761568,-1.49144077,Rb2CoO3
mp-621964,-0.953712686,K2RbBiSe3
mp-769624,-1.455733612,Li3Co3CuO8
mp-504457,-3.526821576,BaTi6O13
mp-570816,-0.474847595,Ho5Ga3
mp-3706,-0.80320813,Ho2Co12P7
mp-676036,-1.216188275,Ba(FeS2)2
mp-568914,-1.744525056,K2WCl6
mp-530850,-2.796129293,Ta2CuO6
mp-756458,-3.783333022,ErAlO3
mp-1019589,-3.833325393,Ce3Zr5O16
mp-540950,-3.425562211,Ba3SrTa2O9
mp-11718,-2.870906688,RbF
mp-866314,-1.393933575,Ca5Al2(SiN4)2
mp-20335,-0.809147901,MnNbP
mp-13853,-0.64358773,P3Ir
mp-773197,-1.722804775,Li2Cr4O13
mp-7124,-1.187458567,TbSiPt
mp-2964,-1.334154584,NaNO2
mp-6793,-3.208796433,BaLa2ZnO5
mp-972238,-0.539251443,Ti2VIr
mp-573376,-1.808578495,Lu2CCl2
mp-755340,-3.408096427,Tb2SeO2
mp-753783,-2.027036309,Li5InO4
mp-3583,-1.461076778,U2AsN2
mp-864661,-0.401856671,ZnCuPd2
mp-22735,-0.651302801,Ca2Sn
mp-38685,-2.50332724,CeSbO3
mp-764374,-2.828053123,Li2Mn4OF8
mp-32383,-2.456378706,Li2NiP2O7
mp-779775,-2.934236058,Li24Ti11CrO36
mp-31286,-0.364966275,K3Bi
mp-581716,-0.471104031,Sr(InAu)3
mp-677192,-2.138310403,K4PH5S3O16
mp-4135,-2.689789459,RbPO3
mp-648072,-2.600606357,NaPO3
mp-541787,-0.155407846,Na8Hg3
mp-867178,-0.331298459,PrMgCd2
mp-1751,-0.90690541,ThSb
mp-894,-0.565997905,ZnPt
mp-692,-0.258842963,Tb2C
mp-754505,-2.757023332,SrTaNO2
mp-22876,-0.83331708,CsI3
mp-510367,-2.467711894,Fe2P2O7
mp-18257,0.076891259,Fe7C3
mp-780107,-2.608809338,Li7Cr3Fe(PO4)6
mp-753611,-1.571035389,PCl3O
mp-623064,-1.782039064,ReN2(OF4)2
mp-565692,-2.479954376,K3Bi5(PO4)6
mp-1885,-0.946316225,AlIr
mp-23571,-1.303564076,KBa4Bi3O
mp-17504,-0.802969309,Sr3(GeAs2)2
mp-744347,-2.317723345,RbVH4(OF2)2
mp-641010,-1.749066729,La4Te3N2
mp-775869,-2.284732419,Li4Cr5SbO12
mp-1016820,-1.892157194,MgSnO3
mp-530546,-3.278453836,SiO2
mp-570774,-0.421636218,Zr5Al4
mp-675379,-1.887007392,Li2Ta2O3
mp-849545,-2.566810357,Mn12O7F17
mp-974620,0.064982265,Rb
mp-760170,-1.899807677,Sn13(O5F3)2
mp-1013830,-2.085906571,NaCo3P3O13
mp-679984,-1.700009751,Cs4Ru2Cl10O
mp-772635,-1.566370455,Mn3Cr2Co3O16
mp-14386,-3.33843155,Ba3Lu(BO3)3
mp-10851,-3.276633623,SiO2
mp-774347,-2.208440231,Mn3Fe(PO4)6
mp-1019519,-1.455938126,Ba2NaO
mp-406,-0.462522752,CdTe
mp-862750,-0.487415626,SrNiSn2
mp-12647,-3.584311839,TbNbO4
mp-558842,-3.635792999,Sm7BP2O17
mp-865176,-0.08799824,HfCu3
mp-772842,-2.141258797,Na2Ge2O5
mp-673168,-2.60853254,SiO2
mp-22019,-2.418800438,Yb3Sb5O12
mp-22418,-0.504608485,Sr3(SnIr)4
mp-867193,-0.852999131,Sr2BiAu
mp-2762,-0.796529373,YIr2
mp-675892,-0.459874041,Yb(SbTe2)2
mp-976118,-0.71810688,HgH6I3NO
mp-753305,-3.066900949,LiTiSiO4
mp-758281,-2.646615519,RbB2P2HO9
mp-705861,-3.087070499,Rb10NaAl11Si13O48
mp-778748,-2.300944184,Li3FeBO4
mp-707227,-1.99272452,K5H3S5O14
mp-1871,0.057131664,Fe2C
mp-2343,-0.184930788,Mg2Sn
mp-733581,-2.011953592,PrH(SeO3)2
mp-23611,-2.804848198,BaTa2Bi2O9
mp-572833,-1.464897489,Cs3Sm(PS4)2
mp-30302,-1.827606512,HfBrN
mp-7288,-3.456288206,Sc2SO2
mp-1001827,1.229704521,IrC
mp-865876,-0.63392364,Ti2TcOs
mp-24073,-2.287872665,Gd(HO)3
mp-974545,0.742015954,ReSn3
mp-11007,-0.888697119,CaPSe3
mp-30986,-1.973072149,Zn3S2O9
mp-560066,-2.351709484,SbSO2F5
mp-2292,-3.89837342,La2O3
mp-1018815,-1.066264686,NdSbPd
mp-679975,-2.184419503,KGaO2
mp-971909,-0.310906751,ZnPd3
mp-756553,-1.797428621,Li5Cu3(SbO5)2
mp-865213,-1.149682474,Ba8Bi4H2O
mp-4789,-2.494622143,PrRhO3
mp-5039,-2.709892727,KPO3
mp-774371,-2.997358691,Li4Mn3F10
mp-1020109,-2.997807953,LiMg3P3O11
mp-556689,-3.827456751,KZrF5
mp-4759,-2.106224428,ZrTe3O8
mp-9958,-0.810296464,Ti2GeC
mp-569871,-0.449216989,Tm6CoBi2
mp-623134,-0.216940866,ZrInCu2
mp-18743,-2.924550701,CaMnP2O7
mp-1009827,0.123664257,BaSi2
mp-17334,-0.55058222,Sc2Cr4Si5
mp-18954,-3.001540056,ScMnO3
mp-752404,-2.482999237,Ba2Sb2O7
mp-768402,-2.027150916,Ba3Y2Br12
mp-1008999,-1.758521423,LaSe
mp-27256,-1.870602491,Sb2(S2O7)3
mp-28319,-0.165994606,PtI2
mp-561474,-2.452772737,K3LiSiO4
mp-11473,-0.026211825,TlHg
mp-985,-0.28417235,TmCu
mp-7444,-0.402245406,RbSb
mp-703550,-2.190626259,LiZnPH2O5
mp-28017,-2.877578632,Na8Ti5O14
mp-961713,-1.022406375,ZrSnPt
mp-510294,-2.481930518,Sr2CuWO6
mp-775991,-2.215112666,CrCo3(PO4)4
mp-16481,-0.495378634,TiAlAu
mp-863708,-3.020499002,KPuO3
mp-531530,-3.376135051,MgAl2O4
mp-29288,-0.464725405,TlGeI3
mp-35841,-0.316942176,Li2CuGe
mp-30176,-0.323618759,U2AlCo3
mp-4196,-0.654011613,NdFeSi2
mp-780121,-2.021446989,Fe4O5F3
mp-766207,-3.57766252,Zr6Nb2O17
mp-975341,-0.009957239,La3Mg
mp-541986,-1.537384637,K2LaH4N5O17
mp-772869,-3.206434822,Ta7InO19
mp-367,-1.049204098,Sm4Sb3
mp-769997,-3.659903741,La2Ti3O9
mp-568855,-0.527525969,K2Hg(PSe3)2
mp-8799,-1.257897965,RbNaS
mp-997554,-1.698538407,Li4Fe3(CoO4)3
mp-774859,-2.780622684,LiNbPO5
mp-21466,-2.538460521,Ca2RuO4
mp-12433,-0.204175632,NaSnN
mp-775731,-1.681386352,Li9(NiO4)2
mp-1009219,-0.967701915,HfN2
mp-29717,-0.472625234,Ag(W3Br7)2
mp-14563,-2.512017951,NaCa3IrO6
mp-30303,-1.586981592,Bi4O7
mp-18860,-2.780332008,Li2VSiO5
mp-771,-0.263618135,MnAl
mp-21651,-0.55801073,Ce5Ge2Ru
mp-675942,-0.324287621,AgClO2
mp-555387,-3.217972311,BaSi2(BO4)2
mp-562394,-2.967347477,Cs4Li2(Si2O5)3
mp-541177,-3.262820222,GdVO3
mp-17177,-2.780281705,Nb2ZnO6
mp-6562,-1.968294277,Ba2CuHgO4
mp-770848,-2.276732995,Li2TiCo2O5
mp-18866,-2.652022041,CaV4O9
mp-714,-0.315583365,SrSn4
mp-28899,-0.147236532,Hg2As3Br
mp-704189,-2.139038863,CoPO4
mp-28805,-0.741068732,Tl2Pt5S6
mp-697111,-1.393107736,H2O
mp-571053,-0.239397378,Al5Mo
mp-773918,-1.615369239,Zn(Bi19O30)2
mp-706273,-1.187987224,KH(IO3)2
mp-4649,-1.100482937,PdSe2O5
mp-2284,-1.447559501,AgF2
mp-758063,-2.837700675,LiTiP2O7
mp-779973,-2.548993003,Hf2N2O
mp-12071,-0.498386199,Ti3As
mp-697253,-1.35494478,SiH12C2(NF)6
mp-558616,-2.866690992,SrZnP2O7
mp-349,-0.417085731,Yb3Si5
mp-721086,-1.63553937,Li2CuP6H20C2(N3O11)2
mp-756804,-1.936753568,TePHO5
mp-31473,-0.219924158,K2Hg7
mp-770887,-2.0887725,BeCrO4
mp-30187,-1.732660423,Ga2Te4O11
mp-39288,-3.33540647,BaLaMgNbO6
mp-4908,-0.61268689,Y(CoGe)2
mp-647813,-2.08721179,Cs2CrO4
mp-36582,-0.942065966,NaHS
mp-557019,-2.436548218,RbErSeCl2O3
mp-975138,-2.013332607,RbWO3
mp-559933,-2.589454579,Ba3In2Cl2O5
mp-585305,-2.58980455,Li9Bi3P8O29
mp-27887,-0.658964649,Ba3(Si2P3)2
mp-568062,-1.384400934,DyTlSe2
mp-13271,-1.192234765,ErAsPd
mp-31756,-2.554563034,Ba2FeReO6
mp-29232,-3.188675426,ZrPb3F10
mp-22027,-0.045351318,MnSnAu
mp-23752,-0.291857664,Cs2MgH4
mp-1008555,-0.180352702,AlCu3
mp-21307,-3.098189997,NaEuTiO4
mp-652479,-2.564054359,LiZnPO4
mp-12226,-2.924752707,NaNd(PO3)4
mp-18832,-2.820532349,K2VO2F3
mp-699403,-3.249805874,BaLa3TiCr3O12
mp-676527,-1.684650031,Na4PH5Se3O16
mp-23038,-1.265320929,CsVBr3
mp-6168,-0.707412801,K3Nb2CuSe12
mp-21878,-0.310954854,CeCo4B
mp-997182,0.003585491,C
mp-697816,-2.432083357,Li2Fe(PO4)2
mp-632815,-2.535351215,Li10Ge(PO6)2
mp-973818,-2.269149948,LiHoO3
mp-20343,-1.093618706,NaAuO2
mp-867887,-0.478353881,Sm2CuIr
mp-773699,-1.789294713,LiMg(Fe5O8)2
mp-777472,-2.833241597,LiFeF4
mp-996980,-0.4798141,AgAuO2
mp-22859,-0.258079615,HgI
mp-28276,-1.877100038,K2PrBr5
mp-14836,-3.100821505,Pr4Si2Se3O7
mp-1323,-3.876782983,AlF3
mp-759030,-1.5259288,KSmH4(N2O7)2
mp-626256,-1.173087689,H3NO4
mp-504806,-1.923746522,K2Li14Pb3O14
mp-935267,-2.441516922,Li4UC3O11
mp-754725,-2.303814426,UCd3O6
mp-1018784,-0.778077816,LiCe(CuP)2
mp-10600,-0.187392928,La3AlC
mp-11568,-0.378662896,SmTl
mp-1019529,-3.266060971,Ba8Al10B12O41
mp-20478,-0.670498167,LuTiSi
mp-775025,-2.160976633,MnCu(PO4)2
mp-2315,-0.049075425,NaB15
mp-3204,-0.8796739,YbSnPd
mp-989645,-1.206440458,YWN3
mp-867220,-0.63414048,LiTm2Ir
mp-20384,-0.789573599,CeAgAs2
mp-621612,-0.774734666,AgPb2Br5
mp-1046,-0.128948084,NbSn2
mp-768218,-2.811523509,Li2TmPCO7
mp-867306,-0.256074612,AlCuAu2
mp-982005,-0.04413241,Th(Mg4Al3)4
mp-569333,-0.353332298,Li2AgBi
mp-21351,-0.347360948,Dy2In
mp-555909,-3.04416772,Tb5Se2Cl3O10
mp-642493,-0.585300805,Hf3Al3C5
mp-626083,-2.61118973,Si2H2O5
mp-769610,-3.458305448,Ca5Ta4O15
mp-542545,-0.721825261,K3Nb2AsSe11
mp-29743,-3.651124527,Sr5U3O14
mp-505418,-1.255222665,CsDyI3
mp-2629,-3.932082439,Ce7O12
mp-755835,-2.405682712,LiBiB2O5
mp-769394,-3.299313505,Ba4Ta2O9
mp-21124,-0.487614993,SrIn4Pt
mp-559691,-3.46301012,Ca2Al2SiO7
mp-27821,-0.027012647,Ag3P11
mp-11912,-2.653605756,NaNd2IrO6
mp-763941,-2.859401716,Mn6OF11
mp-23202,-0.468485084,InI
mp-849468,-1.809447598,Li4Fe3Co3(TeO8)2
mp-8180,-1.478346608,LiNO3
mp-764497,-2.194456518,VFe2Ni3(PO4)6
mp-6591,-3.897511534,SrLiAlF6
mp-704220,-2.405618552,FePO4
mp-6105,-3.11417797,Pr2Ta3(SeO4)2
mp-984762,0.718008182,CsY
mp-561550,-1.220222506,Ag3BO3
mp-758100,-2.173665147,LiCuPO4
mp-971702,-0.379968664,YbNdCd2
mp-757800,-1.656317976,LiCuCO3
mp-12826,-0.054269091,Sb8Te3
mp-19166,-2.239922657,Sr3NiPtO6
mp-676473,-1.145113543,Te6H6S(Cl13O2)2
mp-781618,-2.587982778,Mn12O7F17
mp-22044,-0.764487048,Sm2Ge2Ru
mp-779742,-1.499137158,Cs2ZnH12(SeO7)2
mp-569806,-0.870017057,K5Na(Ti2Se9)3
mp-768663,-2.300451909,Na3SiBiCO7
mp-35236,-1.942422721,Ga2NiO4
mp-5451,-0.447783521,Er(FeGe)2
mp-17988,-0.655047556,U2Mn12P7
mp-974779,0.070665136,NdTh3
mp-9581,-0.774180761,Th(CuP)2
mp-556771,-3.627751664,Nd2Si2O7
mp-753942,-1.882971114,BaY3Br11
mp-4079,-0.593969007,Sc3AlC
mp-759821,-2.36705462,Sb3O2F5
mp-2930,-0.029270379,Mn3ZnC
mp-19767,-0.722645409,DyCoSi
mp-16480,-0.279793028,Al3Au8
mp-1525,-1.35817972,CeTe
mp-13434,-0.199223798,CaMgNi4
mp-20131,-0.405612565,YIn3
mp-7543,-1.419927625,LiVS2
mp-976122,0.343907456,Ge3Sb
mp-780421,-3.663524837,LaAlO3
mp-865358,-0.360376329,DySnRu2
mp-690508,-2.681254371,Ta2Mn4O9
mp-644483,-0.422249245,Ti3SnH
mp-8411,-0.378370295,Na2AgAs
mp-510728,-0.305755967,MnCoH18(CN2)6
mp-628782,-2.079947213,V3Pb5ClO12
mp-27700,-1.535864073,Sb4Br2O5
mp-13675,-0.943430078,CdPd3O4
mp-559608,-3.205480477,K3NdSi7O17
mp-11892,-2.747200474,NaNd2RuO6
mp-867296,-2.348193432,RePO5
mp-631409,0.649893875,TlTcIr2
mp-24798,-0.568298507,Rb3B12H12Cl
mp-6782,-2.516305218,Li2ZrTeO6
mp-5962,-0.632609463,NaMgAs
mp-9607,-3.160339563,Li2UO4
mp-25571,-1.882697652,MoO2
mp-763303,-1.955078709,Mn3O5F
mp-846,-0.42442086,Hf2Al3
mp-690435,-2.036857317,Li7Mn11O24