id,formation_energy_per_atom,pretty_formula
mp-558754,-2.144990252,Sb4OsC6(O3F11)2
mp-558826,-3.921893374,KHoBeF6
mp-865882,-0.309305676,Li2SmIn
mp-764436,-2.055333464,Mg5Fe19O32
mp-559313,-3.280111384,SiO2
mp-15012,-1.214666309,KBS2
mp-7547,-1.388951696,BaSe2
mp-697733,-2.296686611,FeP2O7
mp-773047,-2.927659343,KNb2PO8
mp-15635,-2.671211387,TiTl3F6
mp-23022,-1.286960384,KClO3
mp-631686,0.830634864,TaAsPb2
mp-559540,-2.127350963,RbZnSClO4
mp-775135,-2.3966669,Cr3Ni(PO4)4
mp-557467,-2.793776123,Li4Ca(BO3)2
mp-555321,-3.161650932,BaNiF4
mp-1009548,0.943716254,PdN
mp-756631,-2.799903821,Nb2P2O9
mp-568937,-1.914852332,Cs3Y2Br9
mp-28143,-0.614471358,H8S5N2
mp-23876,-1.217620213,H8S(NO2)2
mp-560870,-2.781315317,BaGa2B2O7
mp-1019103,-1.054017837,SmSbPd
mp-2470,-2.324025397,DyS
mp-7878,-0.304321774,Ca(AgGe)2
mp-555300,-2.489628479,Na2Zn3(SiO4)2
mp-2434,-0.42808526,SrTl
mp-758156,-2.467158162,Li3Sn3(PO4)4
mp-642817,-1.612362684,KHO
mp-942701,-2.206964828,LiCoSO4F
mp-505362,-2.479367546,Ca(LuS2)2
mp-568814,-0.808639722,HoSnAu
mp-16852,-0.325489735,Ga7Ni3
mp-850889,-2.451148753,Li3CrP2O9
mp-2267,-0.595553396,HoB2
mp-534773,-3.09805403,Na2Al17Si11B7(H3O31)2
mp-1005690,-0.767621199,Sm2Co12P7
mp-20387,-0.477669606,EuSn3
mp-7922,-2.63339725,CaPdF6
mp-975608,-0.402291047,Li2TlPt
mp-568831,-0.792209364,Pr2Sc3Si4
mp-1089,-0.714428684,TiIr3
mp-20145,-0.516667249,TiGaCo2
mp-997089,-1.120093368,NaAuO2
mp-977581,-0.524562868,EuHgAu2
mp-556633,-3.129623944,Na3VF6
mp-1684,-0.201804027,ZnAu
mp-604537,-0.285473286,MnGaNi2
mp-29708,-0.945395747,Hf(Te4Cl3)2
mp-779602,-2.304162018,Li3Bi3P8O29
mp-1001831,0.196469969,LiB
mp-1019512,-3.057505,AlPO4
mp-540707,-2.185088121,Cs2Sn(GeO3)3
mp-770517,-1.969613654,Li9Al(NiO4)2
mp-733650,-1.25806187,CuH6(SeO4)2
mp-704236,-2.475947092,Mn(PO3)3
mp-865469,-0.503690561,Ti2MnRu
mp-5603,-0.372346024,NbCoTe2
mp-581778,-0.683476395,Rb2CeCu3Te5
mp-972463,-0.855310965,Tm5Sb3
mp-569465,-1.780956714,Cs2Nb6PbCl18
mp-978652,0.440806354,SiHg3
mp-615173,-1.874626971,CuBi(WO4)2
mp-6326,-3.223311987,LiAlSiO4
mp-769119,-3.423925483,YbScO2
mp-1008903,-0.230093936,MgAgSb
mp-764,-0.105673468,CeCo5
mp-754599,-3.755879727,BaTm2O4
mp-775008,-2.542680601,V3Cr(PO4)6
mp-20778,-3.309713517,Dy2Be2GeO7
mp-5803,-2.946222863,NbPO5
mp-541037,-1.198982922,CsCuO
mp-31953,-2.654504473,Li2MnP2O7
mp-8770,-0.713317853,Cs2CoSe2
mp-706621,-2.188525473,KB5(H2O3)4
mp-18484,-1.916386209,La3MnFeS7
mp-26746,-2.288327424,SbP2O7
mp-23017,-0.80177026,CsCu2Br3
mp-11567,-0.123095629,ScZn12
mp-10912,-2.055609043,BaPr2FeS5
mp-556477,-4.085887437,Lu2O3
mp-662556,-0.366512362,Re(TeBr2)2
mp-705430,-1.723838808,MnO2
mp-756034,-3.039018406,NaSmO2
mp-773188,-2.305227021,Na3MnBSO7
mp-2031,-0.14520814,Be2Cu
mp-977371,-1.187528576,PW4Cl11
mp-28542,-2.348742203,Na3ErCl6
mp-754327,-3.118016679,Ho2CuO4
mp-570611,-0.674787072,PrInAu2
mp-676167,-3.764612861,Tb14Ti10O41
mp-757336,-2.546924499,Hf2N2O
mp-570637,-0.21768459,U3Si
mp-743624,-3.431055799,Ca5DyTi5Fe(SiO5)6
mp-6059,-3.607299096,Cs2KYF6
mp-2204,-1.429496307,Nd3Te4
mp-29463,-1.004997427,LiBeN
mp-2990,-0.540403485,TmAgSn
mp-757905,-2.831367997,Li3Ti(PO4)2
mp-972536,-0.333207515,Sm2TlAg
mp-761032,-2.397902592,Hf5N5O2
mp-13686,-0.667783428,Nb5Si3
mp-561113,-0.935553675,Ag2BiO3
mp-3618,-0.776369359,Sc2FeSi2
mp-768263,-3.381784059,Ba2La2O5
mp-31560,-2.53240663,Li2Co(PO3)4
mp-770731,-3.294758313,LiZr2O4
mp-22033,-0.489831883,Ti5Sb3
mp-919,-1.243595892,HoTe
mp-973740,-0.382445053,MgAs
mp-774408,-2.029809305,Li10Mn3Cr3(NiO8)2
mp-647116,-1.170441335,ReNCl4O3
mp-571505,-0.110371011,Rb2In3
mp-733598,-0.898655217,H9PtN2ClO2
mp-540922,-0.129196571,CrTe3
mp-4320,-1.24594163,CuTeO3
mp-556015,-2.383043018,Dy9(SbO)5
mp-510577,-0.647871663,LaNiSnH
mp-510441,-0.956850701,YInPt2
mp-23979,-1.685224926,K3H(SeO4)2
mp-1008650,-1.554104404,CeSe
mp-11236,-0.16313553,MgZnAg2
mp-28776,-1.561844569,K2UBr5
mp-7126,-0.332007646,TiSnSb
mp-761033,-3.131554695,Hf3N2O3
mp-627575,-1.542857838,K4Zr6CBr18
mp-557892,-1.288999449,BaLi(BS2)3
mp-17158,-0.346241462,Ta3Co3C
mp-761857,-2.819533888,LiNb(BO3)2
mp-15071,-0.874791762,Na6FeSe4
mp-767597,-2.685990488,LiMnF5
mp-740714,-2.606413583,LiB5H2O9
mp-972071,-0.06215496,V3Mo
mp-505274,-2.313197839,Na2SO4
mp-557842,-3.131447168,AlPO4
mp-21730,-1.754264447,Cu4P2O9
mp-22627,-0.540435788,Dy2(Ga3Ru)3
mp-779599,-3.653714663,DyTiO3
mp-7898,-0.226143059,Rb3As
mp-568328,-0.357076692,FeP4
mp-18581,-0.996962806,Hf2Co4P3
mp-504807,-1.277445081,MgP2H20C4(N2O3)4
mp-5149,-0.409235283,NbAlCo2
mp-23426,-2.876015802,Al4Bi2O9
mp-27580,-1.780470548,Zn3(AsO3)2
mp-775205,-2.538859924,Li3MnP2HO8
mp-1008617,-0.340576524,YbAg2
mp-34116,-2.177017269,Tm2MgS4
mp-5365,-0.669898755,DyCuSi
mp-567655,-1.861313357,Sr2C(NCl)2
mp-558864,-2.323311185,CrHgF6
mp-18982,-2.248987582,Sr3NiIrO6
mp-776579,-1.552473146,Ba3(YI6)2
mp-772878,-1.754450954,Ba2SrI6
mp-583,-0.300953291,CoAs
mp-583297,-2.20397359,Ba6Nb4S13O3
mp-571555,-1.109358188,InCl
mp-642736,-0.342517052,K3H5Pd
mp-997553,-1.641245078,Fe4O7F
mp-28877,-0.627046934,Cs2SnTe4
mp-779366,-2.563079004,LiCr(PO3)4
mp-20103,-0.996342116,TmInPt
mp-772296,-1.700235101,ZnCrO4
mp-1007823,-0.68536758,GaBN2
mp-22375,-0.913453362,In2S3
mp-11519,-0.256404954,NiSnRh2
mp-961652,-0.436964477,ZrFeSb
mp-3777,-1.317003622,BaSiN2
mp-573563,-0.998006857,Sm(CoP)2
mp-643371,-0.50449738,K2Sn(H2N)6
mp-976133,-1.601324259,NaAsO3
mp-9416,-2.057976964,La(CuO2)2
mp-2645,-0.252735452,YbNi5
mp-862676,-0.371984678,LiHoIn2
mp-640057,-1.365348941,K2OsNCl5
mp-4920,-0.899825921,Nd(GeRh)2
mp-558393,-2.456483092,Rb2Nb3Cl7O5
mp-554279,-1.673951321,Tl3Hg2S3ClO12
mp-555044,-1.707559465,DyCuS2
mp-554258,-3.280540104,SiO2
mp-760683,-2.530303674,Li4Cu(PO3)6
mp-22795,-0.088414663,Pb2Au
mp-769568,-2.629722608,Mn2V3Cr(PO4)6
mp-570876,-0.914296014,NaNd(GaSe2)4
mp-1016825,-3.064161363,HfMgO3
mp-541751,-0.119586012,Ni4(Bi4I)3
mp-17063,-1.308196592,BaLaCuTe3
mp-20466,-0.25435711,Sn7Ir5
mp-756564,-2.788844596,BaYCl5
mp-977224,-0.536080768,PrAs3
mp-26113,-2.77602396,LiTi(PO3)4
mp-20565,-0.188869112,MnCoGe
mp-22317,-0.553554128,EuGa2
mp-17638,-0.851093995,Rb3SbSe4
mp-30914,-0.29606775,UAl4Co
mp-618,-0.164864316,Pd7Se2
mp-554286,-2.991676422,La6Ti2S8O5
mp-636525,-0.448729083,Zr7Ni10
mp-975883,-0.472214598,PrNdHg2
mp-628664,-1.039528251,Ce2P3Au
mp-770170,-2.572893086,Li3V3(BO5)2
mp-707836,-0.452901294,Na3H6Ir
mp-776359,-2.980986033,YNb2NO5
mp-18198,-1.006076581,ScSnPt
mp-777964,-1.707568701,Na2BiO3
mp-680063,-1.595411308,K3La2(NO3)9
mp-643154,-2.73507481,Li3V2(PO4)3
mp-39208,-3.305787657,BaLaTiCrO6
mp-849421,-2.660721971,LiV2(PO4)3
mp-707501,-0.58645985,CdH24C4(BrN2)6
mp-10708,-0.364662303,PrRh3C
mp-773145,-1.729414872,Li2Cr4O13
mp-849399,-2.626570387,Mn2OF3
mp-759694,-3.437446296,Mg2Ti7O15
mp-778816,-1.36500779,Co2O3F
mp-9880,-0.521753403,YB2C
mp-865170,-0.435328063,GaFeRh2
mp-760470,-3.948304573,Ce2UO6
mp-651728,-1.135721268,VSb2NCl14
mp-8610,-1.926460714,Li8PtO6
mp-505495,-0.71085448,KP4N7
mp-16483,-0.317329813,BaAl9Fe2
mp-1001023,0.847353029,BeC2
mp-743584,-1.202570158,H12WN3(OF)3
mp-24522,-1.568706557,CuH2SO5
mp-754422,-2.813909565,BaYb2O4
mp-10401,-2.568300042,Tl2SnF6
mp-21255,-0.097649151,FeGe
mp-557024,-3.233963826,SiO2
mp-15362,-3.106731361,Li3Nd2(BO3)3
mp-864632,-0.304819755,Yb4Ni13C4
mp-636821,-0.016103829,U6Ni
mp-3960,-3.715785688,CaUO4
mp-30530,-0.816952105,TlClO4
mp-754598,-0.894708323,Hg3SeO6
mp-27146,-0.916931352,Cs2Sb4S7
mp-2415,-0.211872538,DyTl3
mp-17697,-4.013201013,KSmF4
mp-30627,-0.277933727,DyZn5
mp-558521,-1.921730923,B2Se2O7
mp-21447,-0.424603433,Nb4CoP
mp-642279,-0.395187197,U6Fe16Si7
mp-754739,-3.112423173,CaBe3O4
mp-2896,-0.893756847,Pr(GeRh)2
mp-11822,-0.810916524,Ca3GeN
mp-1016930,-1.427645757,ZnGeO3
mp-998309,-2.410222738,CsNaF3
mp-636256,-0.128211515,LaCu6
mp-10734,-3.106876146,Ti4O5
mp-1017983,-0.134255917,TiMo3
mp-12156,-1.995594325,K3Sb5O14
mp-1018695,-0.71055005,EuBiAu
mp-1532,0.013172054,NpNi2
mp-648932,-1.089520448,Nb2PS10
mp-19843,-3.623709419,CeAlO3
mp-709066,-2.171754674,Rb4LiH3(SO4)4
mp-20757,-0.201978612,MnAlGe
mp-753173,-2.985177673,HoIO
mp-567749,-0.726765106,Y(SiOs)2
mp-696157,-1.845022617,NaP(HO)6
mp-763504,-2.695813651,Li3Mn8(OF3)4
mp-9241,-0.351236558,HoCoC2
mp-23644,-1.104089546,Hg3AsClO4
mp-627119,-1.963841543,VHO3
mp-569349,-0.589950327,Rb2HgPSe5
mp-12264,-3.349722741,LiYbF4
mp-8145,-3.006164616,RbScO2
mp-23818,-0.594464455,BaLiH3
mp-703343,-1.634843537,Li2Sn(H5O4)2
mp-757945,-2.437903991,LiSnPO4
mp-1006883,0.153792315,CoNi
mp-866191,-0.323747329,Li2YbSi
mp-541587,-0.904310546,U3Cu2Se7
mp-2478,-0.5453017,NbSi2
mp-779703,-2.047341249,Na4Sn5O12
mp-24391,-1.847043069,MgB3H15O13
mp-10234,-2.038754202,Sr2BN2F
mp-4170,-3.072241566,NaTaO3
mp-865842,-0.74294452,Ti2OsRu
mp-862696,-0.551248729,CeGa3
mp-561255,-2.116958323,ZnBi6P2(O7F)2
mp-22980,-1.595070666,Li2CoCl4
mp-772782,-2.745460896,K2CePCO7
mp-757155,-2.608007509,Nb(PO3)4
mp-973456,-0.44961022,Lu2TcAu
mp-866018,-0.404740886,Ac2ZnGe
mp-1184,-0.169182662,La2C3
mp-14782,-0.790914282,Na6MnTe4
mp-505089,-3.329636447,Li4TbF8
mp-1270,-2.472076367,Dy2S3
mp-760377,-2.72677493,Li2Nb(PO4)2
mp-29688,-1.274657472,Ge3Cl8
mp-7100,-4.281750657,LaOF
mp-772149,-3.023106775,Sm2Ge2O7
mp-560553,-1.83974899,IrF6
mp-541813,-3.518226966,RbMgF3
mp-2455,-0.227833697,As2Os
mp-780671,-2.766629812,SrTaNO2
mp-557825,-0.744779511,H4CN2O
mp-5505,-1.488346225,U2TeN2
mp-19352,-2.446139777,KAl(MoO4)2
mp-21834,-0.092649856,Nd6Fe13Sn
mp-979263,0.047359986,ThMg3
mp-27630,-1.560912406,CrCl3
mp-12565,-0.077908622,MnAu4
mp-36734,-4.163757699,CeThO4
mp-979942,0.45073226,Yb3V
mp-631524,1.140632862,BTe2As
mp-20305,-0.237118404,InAs
mp-601348,-2.375947787,LuP2H4NO7
mp-779165,-2.950778301,Li2MnF5
mp-570677,-0.346212034,Ba5Al5Sn
mp-19058,-2.198076489,Ba3CoRu2O9
mp-782639,-3.291015582,Dy2WO6
mp-13453,-0.397560996,BePd3
mp-542515,-2.297764784,Gd2Te4O11
mp-861738,-0.443249892,CaMgPb
mp-989517,-1.255139848,Cs2SBrCl6
mp-6576,-0.50822537,YNi2B2C
mp-34260,-3.890462477,ZrF4
mp-674897,-3.100837818,SrNd3AlCuO8
mp-704630,-2.591478883,Be3Fe4Si3TeO12
mp-17715,-3.513956248,SrTa2O6
mp-157,0.034642563,P
mp-560981,-3.006266773,NaMg4(PO4)3
mp-13119,-1.378560839,CdO
mp-763878,-2.54154335,LiMn2O2F3
mp-569842,-1.131185682,Ba3SiI2
mp-570326,-1.735715012,CsCrCl3
mp-12668,-3.627475392,Tb2SO2
mp-18182,-2.412375833,CsNa3TiO4
mp-759550,-2.420182021,Li3Sb3(PO4)4
mp-8458,-1.000721048,BaAsPt
mp-20571,-1.195100746,DySiPt
mp-862365,-0.700210749,Sc2OsPd
mp-567558,-1.519736677,CsAgCl2
mp-863716,-0.743868194,Pm2IrPd
mp-761153,-3.6260153,U6O11
mp-973267,-2.010051609,KTcO3
mp-763484,-2.575182914,Fe4OF7
mp-41837,-3.205773792,RbTiZnOF5
mp-9113,-2.315508337,CsBeAsO4
mp-10992,-0.823056797,DyCuAs2
mp-572741,-2.934432414,CsUP3O11
mp-126,0,Pt
mp-850277,-1.645452592,SrCaI4
mp-984785,-0.046229722,AcMg3
mp-645555,-3.007499224,KUVO6
mp-707457,-2.238316572,KMg2B12H19O30
mp-10527,-0.7372299,Y2AlSi2
mp-530074,-0.00254146,B4C
mp-1013525,-1.313716109,VS2
mp-4911,-0.48185623,Th(CuGe)2
mp-17490,-0.37470021,Rb5SiAs3
mp-7595,-2.408621652,GeF2
mp-580234,-0.154723984,Fe3RhN
mp-12410,-2.785758303,Ba2TbIrO6
mp-555816,-2.032874277,KDy(SeO4)2
mp-27200,-0.144229407,B13H19
mp-753891,-3.636381097,ZrTiO4
mp-15683,-0.260879262,CrAsRh
mp-676764,-0.22906949,InCuSe2
mp-569250,-0.521426105,VIr
mp-739,-1.184122106,TiP
mp-27622,-1.592159425,Na2PbO2
mp-14356,-0.606311781,Dy3MnB7
mp-1007690,0.062820193,HgPt3
mp-979114,0.256056201,Th3U
mp-30156,-0.764020992,LiMgN
mp-17875,-0.958351276,Ca6GaN5
mp-672651,-0.590439515,Zr6Ni16Ge7
mp-1008820,1.403158982,PdN2
mp-17637,-2.839437955,USO6
mp-541280,-3.135655343,BaLaGaO4
mp-23733,-1.362923271,Cu3H2(CO4)2
mp-29606,-1.680020487,Rb2Zn3O4
mp-980004,-0.534493817,SmGa2Co
mp-867897,-0.629440131,ScTaRu2
mp-769620,-2.442019858,Li2VCrO4
mp-756424,-3.971966531,GdLuO3
mp-571571,-1.009885099,CeTe3
mp-676143,-1.627746426,Ce5AgSe8
mp-754326,-1.02125997,NaAgO2
mp-865898,-0.34853888,TiZnCo2
mp-16544,-0.442899869,Mg4As6Ir7
mp-16587,-3.311625631,Dy4Si2S3O7
mp-861868,-3.17029305,KNaLaTaO5
mp-27376,-3.032604821,Rb6Si10O23
mp-779357,-2.909767088,V3OF11
mp-6872,-2.756428145,K3SiN(OF2)3
mp-684721,-2.36865621,TiNb2Zn(PbO3)4
mp-3183,-0.806364857,DyBRh3
mp-669445,-0.753739524,Cu2Bi8Pb6S19
mp-38494,-1.750723166,Y4AsSe3
mp-973648,-0.452842557,FeRhO3
mp-12079,-0.892141179,K(CoS)2
mp-625521,-1.023265967,H3BrO
mp-28387,-0.988796994,PAuCl8
mp-771394,-2.615311592,Li4Ti3Mn3Cr2O16
mp-36641,-0.340113849,Cd(Ga3Te5)2
mp-850422,-1.955021509,Fe3(O2F)2
mp-776979,-1.913758373,Li9(CoO4)2
mp-505031,-2.40879056,Cs4Cu3F10
mp-5760,-3.381207913,NdSF
mp-867307,-0.263895875,Be2RuAu
mp-8590,-3.748672041,K2HfF6
mp-1008395,0.331788249,C
mp-680615,-0.528852023,Sm4In21Pd10
mp-1008922,0.835711104,CuN
mp-765718,-2.264762071,LiCo2OF3
mp-1476,-2.20339597,ScS
mp-866169,-0.195543603,KTl2Bi
mp-619475,-2.912068771,RbFeF4
mp-12441,-3.415170305,CaAl2O4
mp-2828,-1.940269551,HfN
mp-5756,-0.143343468,Cu3PSe4
mp-776491,-3.193527746,Lu2P4O13
mp-770492,-2.193222349,Li24Mn11CrO36
mp-977410,-0.249699688,NbGaFe2
mp-771214,-2.244965922,Rb2S2O7
mp-569790,-0.717479989,BaAg2GeSe4
mp-744434,-2.11782954,YNiH3SO7
mp-985295,0.206806249,Ag3P
mp-973892,-3.332265911,EuAlO3
mp-559932,-2.52367325,KTeOF3
mp-573888,-2.771704627,Ba2ScCl7
mp-15649,-0.478772175,As2Ir
mp-989192,-1.967793675,SnClF
mp-771976,-2.353458319,Rb2Be2O3
mp-1008985,0.793243279,CoN
mp-2510,-0.172015458,ZrHg
mp-1629,-0.423589262,Th2Au
mp-1087,-2.482319872,SrS
mp-775260,-2.284720778,Li6CoCu3(PO4)4
mp-862931,-0.827164908,ErSnRh2
mp-23801,-1.544264844,K2H2IrCl5O
mp-865872,-0.146548272,LiZr2Re
mp-759793,-3.039109017,LiTi2(PO4)3
mp-775177,-2.021566711,Co3Cu(PO4)4
mp-29101,-0.797043037,Ce8SbPd24
mp-768589,-1.908911484,Li3CuAsCO7
mp-676779,-4.044343308,NaHo2F7
mp-531195,-2.064744463,Sr2NF
mp-770752,-2.570546136,Ce(WO4)2
mp-39770,-2.648769515,Zr2P3H4NO12
mp-6419,-3.214817794,CaSi2(BO4)2
mp-643460,-0.609777599,SnHg2(SBr)2
mp-989592,-1.253476166,Sr6Sn2NF
mp-775284,-1.863746013,Li2Mn3NiO8
mp-31205,-0.118121611,Zr3Fe
mp-626536,-2.477880861,NbHO3
mp-20949,-0.491465329,MnSiNi
mp-4876,-0.363121372,Tl3SbSe3
mp-1018724,-0.550360852,HoCuSn
mp-2954,-0.55248093,Dy(SiAu)2
mp-337,-0.119152058,PuBe13
mp-30245,-2.231380998,Mg3H4O5
mp-704879,-1.173360728,Ni5Te4(BrO6)2
mp-1334,-0.292508796,Y2C
mp-574148,-0.21594827,K2ZnN12
mp-446,-0.021787664,Cr3Pt
mp-34508,-2.460646702,Sr(SmS2)2
mp-7456,-2.588273784,SnF2
mp-3094,-3.478892428,SrAl2O4
mp-756175,-2.78987942,Zr2Bi2O7
mp-6954,-0.798622884,SrAgAs
mp-14395,-2.628334763,NaAlAsO4F
mp-648992,-2.111315462,Na6Mo10O33
mp-23259,-1.54784428,LiBr
mp-2560,-0.030796657,Ti3Hg
mp-705530,-0.7822037,P3H4N5Cl4
mp-11833,-0.09071203,UCuGe
mp-690537,-1.543111228,Co2Bi11O20
mp-1008669,0.378103905,U
mp-1001834,-0.949060691,HfN
mp-695948,-1.276544878,PH4SNO2
mp-755690,-2.878077504,NbO2
mp-37310,-3.788405623,Dy10Ti6O27
mp-772740,-3.650918078,Ba4Lu6O13
mp-4864,-0.555666576,CaMgSn
mp-28548,-2.215808722,Li8GeO6
mp-766317,-1.707376728,Ba2CaI6
mp-31465,-0.662824703,Ho5Bi3
mp-569341,-0.934330151,NdBPt2
mp-865616,-0.481556102,Yb2AgIr
mp-545404,-3.631289645,SrGd2Al2O7
mp-20196,-0.314233737,NbTe4
mp-541946,-0.749939349,K2Th(PSe3)3
mp-760400,-1.681159269,Na5BiO5
mp-557533,-2.880992562,Cs2TlVF6
mp-1006884,0.299070315,CoMo
mp-862690,0.021913231,Ac
mp-862661,-0.3191571,LiEr2Ru
mp-757612,-0.834761747,Ag7(PbO3)3
mp-770516,-2.77175457,Tb2(WO4)3
mp-505562,-1.783474181,CrCuO2
mp-756854,-3.157252812,Sr2LiNb3O10
mp-733612,-1.901162785,RbH3(SO4)2
mp-862260,-0.303173273,ScZn3
mp-572442,-1.468128712,Cs3Nd(PS4)2
mp-1011860,-2.492384701,Na2CoP2O7
mp-770853,-2.585458977,Li2CoPO4F
mp-608314,-1.986362525,Rb2ZnCl4
mp-3992,-3.3748172,PrSF
mp-7404,-2.016242737,Na3SbO4
mp-680205,-0.672234054,PbI2
mp-760462,-2.857901649,Li5Ti(SiO4)2
mp-765508,-2.666731109,V3(O2F)2
mp-676360,-2.109852373,NaNdS2
mp-777681,-3.189519427,Li3VF6
mp-13800,-2.739590295,Cs2NaTlF6
mp-554059,-3.215720887,Sr2UZnO6
mp-1004524,0.23085205,HPbI3
mp-989609,-1.19838638,YWN3
mp-555896,-2.299847078,Pr9(SbO)5
mp-15661,-0.485365522,Sc4C3
mp-30130,-1.439030879,Bi4I2O5
mp-1008279,0.0103986,Co3Mo
mp-569109,-0.401281342,MnBiSe2I
mp-771487,-2.090768542,Na5Mn2P(CO4)4
mp-4887,-1.233194,BaCeN2
mp-568596,-0.696727024,SmInAu2
mp-28579,-0.249067393,Hg3(TeI)2
mp-3917,-1.793904065,Cd2GeO4
mp-22461,0.092157796,Fe3Sn
mp-696130,-2.494963147,Li10Ge(PO6)2
mp-20892,-1.05576582,ZrFeP
mp-775232,-2.427416172,LiCr4(PO4)3
mp-6628,-1.156537903,CsCd(NO2)3
mp-25579,-2.443938038,YMo3O8
mp-2114,-1.879083226,YN
mp-474,-0.12358974,ErFe2
mp-29792,-3.040150497,CaNb2O4
mp-558536,-0.95798742,RbCdAuS2
mp-977119,0.243856119,Li3Be
mp-567713,-0.540165408,Nb3TeI7
mp-30609,-0.652081832,ErTlPd
mp-985278,-4.435178284,AcF3
mp-765511,-2.445447874,Li6VO5F
mp-560561,-1.052445981,Cu2SeO4
mp-556801,-2.789935166,Na3B6PO13
mp-6353,-1.378569429,Y2Si4CN6
mp-561384,-4.02391531,ZrF4
mp-680159,-1.749979831,CsTa6PbCl18
mp-3822,-2.71969446,SrCO3
mp-560067,-0.459052213,AgHgSBr
mp-13160,-0.678362137,YZnGe
mp-22993,-0.533165732,AgClO4
mp-644203,-0.468849673,CsCaH3
mp-5327,-2.696857891,Na4UO5
mp-769570,-1.924810238,Na3Fe2P(CO4)4
mp-862893,-3.264263967,ThNb4O12
mp-9220,-0.479221904,SmNi2B2C
mp-16770,-0.243082747,Ca2Ag7
mp-6607,-3.284176483,Ca5Si2SO12
mp-17380,-2.032357292,Ba2Ca(PdO2)3
mp-863365,-2.547261492,Li2Sn(PO3)4
mp-5634,-4.180129739,NdOF
mp-9565,-0.711661525,Ca(MgSb)2
mp-771220,-2.247770349,Li3Ti(CoO3)2
mp-861898,-0.671047151,Rb3GePSe7
mp-975,-2.216779985,SF6
mp-2175,-1.942903838,TlF
mp-760829,-1.119170055,Na(CuO)2
mp-558143,-2.45135843,Pr4S3NCl3
mp-562854,-2.68534068,CsNb2BiO7
mp-579071,-2.730702045,BaEu2Mn2O7
mp-759381,-2.497252921,Li3Bi2(PO4)3
mp-559783,-2.697781929,Na3B(PO4)2
mp-559790,-2.448562014,K2Nb3Cl7O5
mp-759307,-3.191050495,TiNb2O7
mp-1535,-0.545467077,TbSi2
mp-14643,-1.389149932,Er2Te3
mp-23929,-1.274103499,ZnH8(NO5)2
mp-765750,-2.17397504,Li5Cr2Fe3O10
mp-31890,-2.661372042,Li4Fe(PO4)2
mp-581194,-2.852710419,CsB5O8
mp-582055,-0.343464967,La7Ni16
mp-770967,-2.683255158,Li2MnP2O7
mp-568392,-0.182837583,Ag10Te4Br3
mp-765680,-1.659647982,CoOF
mp-7087,-3.277681625,SiO2
mp-25417,-2.974300224,LiTiO2
mp-686057,-2.907148785,LiNbO3
mp-762633,-1.647743104,LiMn2NiO6
mp-18138,-0.817365907,K2WSe4
mp-9522,-1.482695718,K(ThSe3)2
mp-864715,-0.277541476,HfInCo2
mp-567710,-1.151505081,KPr3Te8
mp-776325,-1.913326301,Sc2H6(SeO4)3
mp-8869,-3.026369027,Y2S2O
mp-28046,-0.29792786,AlP2I9
mp-27672,-0.557218704,Nb2P5
mp-17897,-3.155616495,RbYP2O7
mp-19163,-2.755746785,SrWO4
mp-867846,-0.451355293,TaTiRe2
mp-14025,-1.690492284,Zr2CuS4
mp-1708,-1.30759491,YTe
mp-774712,-0.911055805,LiCuS
mp-864976,-0.292510014,Mg2AgIr
mp-11596,-0.860329838,PrBPt3
mp-17827,-1.340599045,Nd3SiAgSe7
mp-505510,-0.255828694,NiAs2
mp-8279,-0.585872171,Ba(CdP)2
mp-14883,-2.220779045,Ba4Zr3S10
mp-774567,-3.921347049,Er2TiO5
mp-30120,-1.662676597,K3BiO4
mp-744600,-2.050149634,KVH2SO7
mp-998173,-1.426252816,RbPdCl3
mp-770420,-2.666552415,Li4Ti3Mn3V2O16
mp-1002221,-0.395102147,ErH
mp-20236,-0.393773963,DyIn3
mp-31269,-2.198213915,Na2S2O7
mp-6131,-3.149638335,Ba3Yb(BO3)3
mp-752852,-3.505013743,BaTi8O16
mp-23147,-3.055206199,Na4Al3Si3BrO12
mp-24705,-2.811007085,SrCaB5H2ClO10
mp-18510,-3.443682357,Sr2SiO4
mp-771141,-2.624157479,Dy2Cu2O5
mp-567612,-0.392906043,ScOs2
mp-6272,-2.91902978,NaEuP2O7
mp-27793,-0.50667483,Nb2Se
mp-555465,-1.471095896,La10Si8O3
mp-763955,-2.4011587,Li4MnV3O8
mp-567404,-0.447198591,YbIn4Pd
mp-17672,-2.962990004,BaLi(B3O5)3
mp-7831,-2.290827014,MgIn2O4
mp-5955,-2.884591,NaSbF6
mp-770633,-2.282679731,RbLi2Co2(BO3)3
mp-618309,-1.266349289,Bi2AuO5
mp-15059,-3.560765807,GdSnF7
mp-7644,-2.879399565,LuAsO4
mp-998325,-1.538215405,RbCaI3
mp-753021,-2.234595727,Sr5Ir3O11
mp-30012,-1.571653801,BiKrF7
mp-18816,-2.39413311,Fe2SiO4
mp-770739,-2.682234828,LiTiFeO4
mp-5547,-3.039111874,Mg2B2O5
mp-721314,-1.860214422,NaH2SO4
mp-697592,-2.191927243,BePH3O5
mp-540659,-3.114463176,Ba(BO2)2
mp-13095,-0.598443888,YAlNi
mp-18983,-2.428213527,ErNiO3
mp-31001,-1.858908904,KSb3O5
mp-4190,-2.700418909,CaSnO3
mp-20154,-3.789701167,CaTbF6
mp-690570,-1.280501338,Ni4(BiO2)9
mp-36946,-0.623100196,TlBiS2
mp-11554,-0.91193678,ZrPt
mp-16861,-0.390887555,Na5GeAs3
mp-19105,-1.666762398,Na3MoNO3
mp-582984,-0.058291787,Pr6Fe13Pb