id,formation_energy_per_atom,pretty_formula
mp-753990,-4.332260155,BaY2F8
mp-972222,-2.124854353,TaBeO3
mp-26550,-2.622552109,Nb(PO3)4
mp-542293,-0.882690098,Ba11Bi10
mp-21794,-3.644295487,Sm2Si2O7
mp-768237,-3.945477231,Gd2HfO5
mp-16297,-0.7897276,Sc3SnC
mp-764009,-2.241119366,Mn6O7F5
mp-998322,-2.66777928,CsInF3
mp-29521,-1.698077103,RbBiO2
mp-781683,-2.421421955,LiFeP2HO7
mp-27226,-1.601439107,MgCu2O3
mp-773466,-1.064686266,NaCu3O4
mp-10983,-0.731774958,ErVB4
mp-2236,-0.483132469,UIr
mp-772439,-2.454178051,Li3AlFeO4
mp-760255,-2.616720901,Li3CuF6
mp-674366,-2.759903035,Tl3SiF7
mp-676250,-0.281724034,Bi2Te4Pb
mp-759737,-2.916255883,Ti3(SnO5)2
mp-17916,-1.268381523,Y3CuGeSe7
mp-755597,-3.571557486,Ca2CeO4
mp-3821,-2.450277293,K2PtF6
mp-765286,-2.513790076,LiSn(PO3)4
mp-9277,-1.454030526,Ce2CrN3
mp-672204,-0.384169393,Ga3Ru
mp-755660,-3.918904828,Lu3TaO7
mp-38683,-1.207164443,Co2NiO4
mp-767165,-1.494783999,K2LiVS4
mp-943492,-2.333565578,LiFeSO4F
mp-686208,-0.87729639,Li5SiN3
mp-778150,-2.671237747,Li9Nb3P8O29
mp-11279,-0.143659383,TiBe
mp-773072,-3.191919006,Ba8LiNb7O24
mp-554223,-2.408196947,RbScAs2O7
mp-555858,-1.129365166,ZnS
mp-556,-0.454919178,ZrNi
mp-861616,-0.658086557,LiSc2Ir
mp-14398,-2.857397514,CaSn(BO3)2
mp-770969,-2.520777436,LiVSn3(PO4)6
mp-767778,-2.755043745,Li2V3Si3O10
mp-849377,-1.97197727,Ni6OF11
mp-865158,-0.575586537,YbNdHg2
mp-17168,-0.533389978,Er3Ni7B2
mp-22658,-0.835345414,Co2NiS4
mp-746817,-2.030108664,NaV2P2(H4O7)2
mp-8376,-3.197864479,MgAlBO4
mp-2848,-0.409433254,Pu5Ir3
mp-510544,-3.463857549,SrSm2Nb2O9
mp-559976,-1.194120453,Ta2CS2
mp-674981,-0.217442501,Ag3SI
mp-28510,-1.972755022,Li3BiO3
mp-743872,-1.757685059,VPH5NO6
mp-22197,-0.220438458,UNi4Sn
mp-541879,-1.139015222,Rb2Ge2S5
mp-36515,-1.579474321,Pr2USe4
mp-768242,-0.620509293,PtO3
mp-673698,0.018168962,Cu2HgI4
mp-695157,-2.730467252,KBaIn2(PO4)3
mp-1536,-0.431401106,KSb
mp-3950,-0.409579141,ErInCu
mp-21119,-0.588994797,CeNiSn
mp-556333,-2.20572729,K2ZnCu3P3O12F
mp-690568,-1.943565618,V2Bi4O11
mp-677311,-1.790639404,Re3Pb3O10
mp-558777,-2.667389459,KNd(SO4)2
mp-675266,-2.122971408,Ca3(HO3)2
mp-865444,-0.736909088,LiSc2Pt
mp-2026,-0.309504619,PrTl3
mp-675626,-0.151547387,Cu3AsSe4
mp-20324,-2.211424549,Ba2LuCu3O7
mp-562920,-3.26254646,CsAl(SiO3)2
mp-695815,-1.665041629,BeP2(HO)4
mp-19116,-2.973240135,Sr2CaMoO6
mp-14794,-1.157603447,K6CoS4
mp-27093,-2.52704188,Li3Sn2(PO4)3
mp-1591,-0.091356345,Al4C3
mp-997590,-3.651490247,La8MgAl7O24
mp-982040,-1.498178198,KBiO3
mp-1014307,-0.635695337,ZrC
mp-569496,-0.452410774,Ce(SiAu2)2
mp-2081,-0.237720939,TlTe
mp-16565,-0.371454453,CdCu2SnSe4
mp-555302,-2.84170542,CsFeF3
mp-12304,-0.685329197,Sc11Ir4
mp-756,-0.521950302,TbAl2
mp-567077,-0.595783664,SmB2Rh2C
mp-2646,-0.36318819,Mg3Sb2
mp-4904,-0.876330347,Pr(SiRu)2
mp-771348,-1.802735035,LiZn6Fe17O32
mp-30299,-1.873423174,RbAsO2
mp-10999,-0.947878164,LuGeIr
mp-11086,-0.196614053,La2MgCu2
mp-771325,-2.60978547,Dy2Cu2O5
mp-27865,-2.247859025,KMgCl3
mp-17313,-3.390865878,Mg3BeAl8O16
mp-94,0,Cd
mp-767614,-2.424317037,Li3Mn4(PO4)6
mp-559557,-2.803749592,Cs2Na2B10O17
mp-30658,-0.28533681,VGaNi2
mp-770531,-2.400706115,MnP2O7
mp-698491,-2.348119474,NaCa2Al4H8C4ClO20
mp-996973,-0.759139679,CuHgO2
mp-989513,-0.867571556,SrWN3
mp-977554,-0.288919945,MgScAg2
mp-18504,-0.782544279,Ca3(GeAs2)2
mp-27554,-0.26650961,Ag3AuS2
mp-978832,-0.155700367,Sm3Pd
mp-774723,-0.969213891,CuH12C3SN6O7
mp-985586,-1.519524842,Na3BrO
mp-13071,-0.504197977,Sc2TlC
mp-606338,-0.781268365,BaCa4(CoN2)2
mp-20309,-0.398457088,EuPb3
mp-28789,-1.033780795,Na4Cu2S3
mp-851110,-1.66249267,Ba9La5I33
mp-1013760,-0.853938237,Sn5(S2Cl)2
mp-568476,-0.292393094,BiPd2Pb
mp-541707,-0.442474369,K6Na3AlSb4
mp-626143,-2.072188491,Mg(HO)2
mp-5513,-0.942141582,Tl3VS4
mp-11965,-0.662053949,Ce2CdPd2
mp-704206,-2.350462919,Fe9(PO4)8
mp-4807,-2.130183275,AgAsF7
mp-39419,-2.798031226,NdTiCdSbO7
mp-631633,0.580906096,LaCoTc2
mp-10925,-2.576140191,Pr2Se2O
mp-779552,-1.586502227,ZnTe2O5
mp-558023,-1.99893182,Rb2Sb4O11
mp-568319,-0.400725863,DyB6
mp-30315,-1.249155313,Ca3BN3
mp-561369,-1.963828771,K3Bi2(AsO4)3
mp-643392,-2.203962442,Ca(HO)2
mp-540696,-0.827135848,Ca3(SiAs2)2
mp-772212,-2.597020597,LiNb5O8
mp-772430,-2.552001816,Li2AlFeO4
mp-4195,-0.665439196,Tm(NiGe)2
mp-980094,-0.546596488,TiPd
mp-32906,-2.58390838,La2S3
mp-774399,-2.988354881,LiMnF3
mp-12797,-3.327450925,BaBe2Si2O7
mp-980066,-0.781421065,Sm2(CuAs)3
mp-9884,-0.650709031,KFeSe2
mp-6018,-2.592361589,Ba3NdRu2O9
mp-19017,-2.554816663,LiFePO4
mp-972630,-0.328021232,SmErZn2
mp-763371,-1.758310961,LiFe2(CO3)4
mp-754227,-1.470316332,Li8NbS6
mp-866481,-0.266745421,Co2(SnTe)3
mp-505517,-2.742722218,BaNb4O6
mp-568525,-1.176762487,Sr2SnSe5
mp-762032,-3.413962381,Ba4Li4Ti19O44
mp-760405,-3.493986838,ErBO3
mp-5869,-2.544059959,Ca2CuO3
mp-8396,-3.600168977,CsEuF3
mp-22129,-0.900329737,DyGaPd
mp-754453,-3.029403548,LaTiNO2
mp-778973,-1.092673132,Zn(NO3)2
mp-974635,0.215071633,Rb3Ca
mp-557625,-1.894746239,Yb3GeO
mp-978950,-0.395689746,Sm2ZnIn
mp-676210,-1.857076116,LiTiCl3
mp-28243,-2.168282678,RbLiCl2
mp-755358,-3.762768748,LuAlO3
mp-18108,-3.395503437,Dy4(B2O5)3
mp-22428,-3.636082378,SrCeO3
mp-12911,-2.798770369,Ba2LaRuO6
mp-9981,-0.408621189,Mn2N
mp-974950,0.165820525,Rb3Li
mp-704183,-2.332888877,LiMo2PO8
mp-1241,-0.298222106,BaAg2
mp-4052,-0.706161788,Rb2Mn3Se4
mp-569121,-1.017227911,La2B3Cl
mp-758651,-2.43129702,Li3Sb3(PO4)4
mp-13498,-0.041981837,Tb2Mg
mp-8540,-0.276939816,NdRhC2
mp-777065,-2.189843886,NaMnPCO7
mp-769856,-1.897857988,Li4Fe3NiO8
mp-643564,-1.850038538,FeH2SO5
mp-540866,-2.268390133,Na6Mg2C4SO16
mp-6446,-3.331326158,Ba3La2(BO3)4
mp-977578,-0.523468995,Zr2TcPd
mp-558248,-3.53020437,PrTa3O9
mp-29163,-0.361687758,Ag2TeS3
mp-19910,-0.311813027,Ce2MgNi2
mp-764629,-2.271431052,Rb3NaV4H2O13
mp-823,-0.389609768,TiCo
mp-975368,-0.030508262,LiCa2Mg
mp-541909,-1.048033779,Zr2(NiP)3
mp-976584,-0.263454434,Hf9Mo4As
mp-557730,-3.036587128,Dy(PO3)3
mp-998414,-1.561380325,CuAgF3
mp-17783,-0.4061174,Mg3Au
mp-5709,-1.912816458,Tl3PO4
mp-15095,-3.219628724,Ca3Si2SnO9
mp-745047,-1.438678767,CrH20S2(NO7)2
mp-16521,-0.491817562,Al3Os2
mp-19298,-2.623654035,La4Ni3O10
mp-12954,-0.676395215,CuBS2
mp-21779,-0.467586928,CaCuGe
mp-8837,-2.552050282,Ba3Er2Cu2PtO10
mp-15074,-0.897691994,Sr(PIr)2
mp-6987,-0.746760807,Sr(GaTe2)2
mp-772780,-2.470000709,K3BePCO7
mp-23175,-0.827919152,Nd4Bi3
mp-768197,-1.287579164,Li5SbS4
mp-558130,-1.000749794,MnBiS2Cl
mp-27393,-0.427658995,AlPd5I2
mp-769569,-1.354415054,Li6MgNi7O16
mp-667372,-3.009537294,Ba8Zr3(SbO6)4
mp-754214,-1.432545943,TlAsO4
mp-776849,-2.20240934,Li4V3Sn3(SbO8)2
mp-556574,-1.969478183,Ba2Ca3Tl2(CuO3)4
mp-707960,-0.774343369,ZnH12C2(N3Cl2)2
mp-984551,-0.388029027,AcTlHg2
mp-256,-1.50400933,LaN
mp-765744,-1.898591689,Mn4O7F
mp-979986,0.025755481,BaCaYb2
mp-866199,-0.258940002,AcAg
mp-31143,-0.838976299,Er2SnAu2
mp-17243,-1.31726561,Pr3CuSnSe7
mp-13687,-2.417492779,Cs2KAgF6
mp-631429,0.727417383,ZrCrFe
mp-21873,-0.245181919,NiAs2
mp-978523,-0.312978354,Sc2ZnCu
mp-867612,-3.614123678,Zr5Ti7O24
mp-559070,-2.479872445,Li2Hg(PO3)4
mp-757578,-2.482083643,LiSn(PO3)4
mp-755757,-2.488670374,Li2Sn(BO3)2
mp-568968,-0.721912121,K2SnHgSe4
mp-973876,-0.09134977,PaBi3
mp-604254,-0.091376115,U2Al20Fe
mp-19208,-2.873018431,La2MnCoO6
mp-36890,-2.092727692,TaBi3O7
mp-770332,-1.976659376,NaBiCSO7
mp-23179,-0.013329825,NiBi3
mp-10198,-0.30466523,Mn3PdN
mp-721617,-1.821833927,KMgP(H6O5)2
mp-22712,-0.703066733,YPd2Pb
mp-30652,-0.461747115,Sc3(MnGa3)2
mp-6539,-3.054851631,RbTiPO5
mp-34584,-3.148023401,Zr4N2O5
mp-623024,-3.305433984,TiCdF6
mp-1187,-0.816255958,ThIr2
mp-628606,-0.74553374,Rb2PdI6
mp-1675,-0.780841562,Ho3Ge4
mp-12457,-1.698793824,LuCuS2
mp-865445,-0.629914232,Lu2AgAu
mp-7562,-1.018553547,TaTl3S4
mp-2086,-2.090252315,PuS
mp-20212,-2.952893077,BaPr2CuO5
mp-568116,-0.998027219,Lu2(CN2)3
mp-763490,-2.823775758,Li4Ti3Nb3Cr2O16
mp-10489,-0.963699806,Cs2Ti(CuSe2)2
mp-772665,-2.009803853,BeCrO4
mp-1018102,-0.75785327,ZrPd2
mp-619575,-1.120797202,ClF3
mp-8882,-0.399521604,GaP
mp-29873,-1.92369052,Rb2CdCl4
mp-30328,-0.416307382,Ho6FeBi2
mp-752922,-2.52621791,Li8HfO6
mp-571169,-0.480076728,InBi2Se4Br
mp-14926,-4.273296445,Sr2ScF7
mp-518,-0.221609714,Ti5Re24
mp-570828,-1.253992674,AlHg2SbCl4
mp-676456,-3.557129836,Sr6La2Ta3Al5O24
mp-22827,-0.340881528,Er15C19
mp-768611,-1.537627631,Ba3(YI6)2
mp-5757,-0.688240284,CeB2Rh3
mp-558480,-2.817231976,K2P2O5F2
mp-30739,-0.317894472,Mg3Ir
mp-28550,-2.875784581,Hf2Ag3F14
mp-683997,-3.022309824,Ce3NbS3O4
mp-780231,-2.546736698,Hf2N2O
mp-17975,-3.082009373,KSrPO4
mp-2652,-3.990443213,Y2O3
mp-778473,-3.365744416,Gd3SbO7
mp-11374,-0.33617295,DyTl
mp-610687,-0.628050572,CeSnRu
mp-781754,-2.630603017,Li3Mn2(P2O7)2
mp-704991,-2.211063935,Mn3(PO4)4
mp-18482,-0.427538646,Yb4Al23Ni6
mp-37199,-2.399216669,Ce(NdS2)2
mp-2844,-0.61176024,ThSi2
mp-776255,-1.251961977,Li5SbS4
mp-570100,-1.001817779,Tm(NiP)2
mp-5418,-2.881299089,Li6Zr2O7
mp-29498,-0.494711709,WBr2
mp-540750,-2.854685018,CsNb(PO4)2
mp-5707,-2.742989502,CsAsF4
mp-18562,-0.730853565,Na2Si2Se5
mp-567554,-0.528655466,Ce2(Al5Ru)3
mp-1506,-0.831561364,Sm5Ge4
mp-541281,-3.095338323,BaNdGaO4
mp-758052,-2.352662942,LiCuF3
mp-645130,-0.078277637,Pr4MgCo
mp-31480,-0.713075309,Ca3(GaPd)2
mp-1081,-1.376668432,V3S4
mp-8611,-2.44818807,Li8CeO6
mp-27334,-1.238300683,Tl3FeCl5
mp-974613,-0.282546838,NdP3
mp-625641,-1.240835509,H9BrO4
mp-864601,-0.381583828,LiMg2Rh
mp-14283,-3.705922026,Sr2InF7
mp-11014,-2.624979843,K2TeOF4
mp-5166,-0.747203665,Ca(AsPd)2
mp-649616,-1.011438512,Pd(XeF8)2
mp-1016837,-1.200431646,SnHgO3
mp-978255,0.152117157,MgTi3
mp-24043,-1.368036049,H2O
mp-756500,-1.630489793,Sr2CaI6
mp-570989,-2.107484117,UCl5
mp-422,-1.397701702,BeS
mp-13444,-0.323353506,LiSn
mp-20961,-1.169169371,EuPd3S4
mp-765595,-2.433945528,Sn(PO3)3
mp-554740,-1.802709423,CdGe(BiO3)2
mp-999079,-0.052803343,Ti2AlCu
mp-778387,-4.240667326,Ba5Y3F19
mp-771900,-2.349193855,Li3AlCoO4
mp-7041,-2.109160061,CaHgO2
mp-8888,-3.008417325,HoAl3(PbO4)2
mp-18878,-1.695164513,LiFeAs2O7
mp-653861,-3.14546443,K3Lu(SiO3)3
mp-9743,-0.973360855,SrAsPd
mp-773418,-1.895752359,Li2NiSnO4
mp-569054,-0.089365106,La2Co3
mp-769938,-3.14167197,TbPrO4
mp-29607,-0.212620921,Ag(TeMo)6
mp-9177,-0.552294396,Y2Al3Si2
mp-19394,-2.490999449,LiV2O4
mp-849409,-2.961480042,V4(OF3)3
mp-1711,-0.768799141,Er3Ge4
mp-6152,-2.66901388,La2ZnIrO6
mp-974505,-0.927416435,ReTeO3
mp-23909,-0.7316943,H6CN3ClO
mp-754483,-1.343410284,Na3(CuO2)2
mp-17518,-1.334076277,Sr2TaN3
mp-37478,-2.329155146,La5AgS8
mp-21941,-0.684427571,Th(Fe2P)2
mp-18445,-1.946321215,Ba2MnS3
mp-705085,-2.416253591,LiCrP4O13
mp-31414,-0.819376523,DySnAu
mp-865098,-0.622418283,NaLaAu2
mp-753102,-2.39816633,La2Bi4O9
mp-567756,-1.63873514,La2CN3Cl
mp-1808,-0.276397492,Ti2Ni
mp-568628,-1.160407148,CsHg5Cl11
mp-972937,-1.876610104,ScAlCO
mp-505483,-1.110191925,SmGePt
mp-973065,-0.393588552,LaP3
mp-7822,-0.767076089,Sc5Si3
mp-631362,0.790329335,SiTe2Os
mp-559708,-3.474558919,Li6ZrBeF12
mp-30844,-0.893643815,ScSnPt2
mp-554560,-2.842030309,Li4Be3P3BrO12
mp-1020160,-2.63777053,Na3Zn(BO2)5
mp-580327,-0.527905536,Gd3(AlNi3)2
mp-777851,-2.406255718,Li3Bi(BO3)2
mp-7913,-1.415132674,BeSiN2
mp-866220,-0.302036193,CaNdZn2
mp-756922,-3.639405063,Ho2SO2
mp-865748,-0.65132026,YbGaAu2
mp-756318,-1.674271423,Al2CoCl8
mp-775971,-2.427085379,Li5Sn5(PO4)6
mp-12700,-0.651709379,NbPt3
mp-605406,-2.15498512,RbU2H5C4O15
mp-4659,-2.463148097,Cd(PO3)2
mp-8759,-2.750670166,Cs2ZrO3
mp-756190,-1.986883751,Cd(GaO2)2
mp-697910,-1.390365367,K2SiH4(NO)2
mp-561017,-0.316182524,Cs8Tl8O
mp-558528,-3.419497987,La2TiZnO6
mp-752918,-3.330875735,NaTi6O12
mp-3494,-0.716414723,CeGa3Pd2
mp-9084,-2.153389869,CsGdS2
mp-641703,-1.175850538,Li7P3S11
mp-568012,-0.237181027,Tb2Zn17
mp-6648,-2.81497744,KLiB4O7
mp-19042,-2.660473635,Ca3Mn2O7
mp-754852,-1.735120323,BaSrI4
mp-480,-1.111274805,ErPt2
mp-23361,-1.954714153,Li5CrCl8
mp-779739,-2.550236755,Hf2N2O
mp-8152,-0.990480762,Li2CeAs2
mp-783909,-2.700080566,Li2MnSiO4
mp-19130,-2.948955614,KNaFe(Si2O5)2
mp-769254,-1.796929198,Li2CuAsO4
mp-754630,-1.685909411,BaSrI4
mp-5263,-3.3469745,Ca4P2O9
mp-773572,-1.399425359,LiCo6O7
mp-569673,-1.321996736,PrI2
mp-2139,-0.527646573,BaGe2
mp-677234,-3.915280323,Ce8Gd2O19
mp-764346,-2.624951714,Li2FeSiO4
mp-4004,-0.366833863,Ag5SbS4
mp-978277,0.261135473,Mg3Cr
mp-755239,-1.787524469,Ga2HgO4
mp-776408,-2.973232049,YNb2NO5
mp-558118,-3.574111827,BeF2
mp-24547,-1.26879566,ZnH2(SeO4)2
mp-30596,0.061360314,Cu11Sb3
mp-1185,-0.383909192,VRh3
mp-17124,-0.680714911,Pr5Ge3
mp-662567,-2.897719666,Nd12Cu6O25
mp-8312,-0.524202791,Ta5As4
mp-767769,-3.106634338,LiVF5
mp-559637,-1.509470639,Dy(IO3)3
mp-850362,-2.439264822,Li4MnFe3(BO3)4
mp-20437,-2.066151513,Sr2SmCu3(PbO4)2
mp-28195,-1.77167115,SiAg2O3
mp-866136,-0.648067587,Zr6Al16Ru7
mp-604119,-2.188298159,KP(HO2)2
mp-769634,-2.351390482,Na3CrPCO7
mp-559514,-2.458729356,Nd4S3NCl3
mp-771993,-1.863426846,LiZn2Fe9O16
mp-4547,-3.320707661,La2TeO2
mp-569012,-0.625727955,Cs(AsRh)2
mp-561375,-2.234345733,Pr10S19
mp-772586,-1.859471596,Li2Cr2O7
mp-569653,-1.258231825,SnPCl9
mp-2773,-0.316642925,BeCo
mp-28612,-0.128181309,Na(LiSi2)3
mp-8606,-0.94369511,BaSbPt
mp-631567,0.510814195,AgAsRu2
mp-1252,-0.16900478,ZrBe2
mp-764980,-2.67624187,LiMnF5
mp-684506,-2.554796422,LiBi(PO3)4
mp-7918,-1.277291053,HfGeS
mp-770537,-2.078903203,LiMn2O3
mp-21281,-0.46357028,Th(MnGe)2
mp-21548,-0.449634875,Er(SiNi5)2
mp-556627,-1.358745909,K4GeS4
mp-763347,-2.654212669,Li2VO2F
mp-557835,-1.973498916,TlF
mp-29304,-2.40848392,Y2InCl7
mp-984755,-2.546052327,Nb4Ag2O11
mp-4673,-3.830831588,SrHfO3
mp-19800,-0.345369537,Fe11Si5
mp-31408,-3.10270237,Al4(B2O5)3
mp-37722,-0.49351136,KBH4
mp-601286,-1.012706283,TbCuPbSe3
mp-571330,-0.187451862,Nd3AlC
mp-780585,-2.496556733,Ti(FeO2)2
mp-10967,-0.342712454,CdCu2GeSe4
mp-756048,-3.953646858,TbErO3
mp-861597,-0.527427694,Pr2Ni12As7
mp-621924,-3.231831374,BaCdGaF7
mp-567864,-0.242103893,TlBi(PSe3)2
mp-1030,-0.107938958,SbPt7
mp-570632,-0.6554865,ScBi
mp-653973,-2.535603205,KZnPO4
mp-643586,-2.156929283,CsHS2(O3F)2
mp-768108,-2.297916126,Na2FePCO7
mp-510073,-0.593215283,RbLi(H2N)2
mp-11675,-0.45423455,NbTe2
mp-698941,-1.782390007,Nd5Fe5As5O4F
mp-505794,-1.299367487,ScH6N2Cl3
mp-19861,-0.50530623,LaCrSb3
mp-755139,-1.319947675,Li5BiS4
mp-530722,-3.385015869,MgAl2O4
mp-6368,-2.33638284,CsSO2F
mp-570590,-0.557911424,CdBiSe2Br
mp-20980,-3.354992911,NaNdTiO4
mp-30483,-0.244988352,CaZn
mp-20549,-0.340557424,CaPb3
mp-1894,-0.122316359,WC
mp-756670,-2.178668532,Eu2Pb2O7
mp-616255,-0.815984166,In2Sn3S7
mp-867663,-3.958388946,SmY3O6
mp-12863,-0.287587144,Ba(AlSi)2
mp-21552,-2.693782085,Na2GaCuF7
mp-974782,-0.2572387,NdTlAg2
mp-1020179,-2.514584316,Na6Si2O7
mp-21931,-0.8121539,Sc11(AlGe4)2
mp-31141,-0.333346992,SrBiAu
mp-9612,-2.466332557,La3Ir3O11
mp-19266,-2.717120596,Sr2FeWO6
mp-558535,-2.182906572,La10Se14O
mp-6944,-2.968763219,LiTiO2
mp-35200,-1.610586669,AlO3
mp-556798,-1.528216002,AgHg2PO4
mp-23838,-1.952572622,Zn2PH2CO7
mp-2019,-0.130624569,LaRu2
mp-18745,-1.846745774,LaMnSbO
mp-32933,-2.415119472,Tm2S3
mp-3284,-0.992214414,CeSi2Pt
mp-961646,-0.337360597,TiTeOs
mp-27606,-0.846951827,ZrAs2
mp-1486,-0.224696113,ZnNi
mp-561512,-1.482129132,K4Cu4Cl10O
mp-24570,-2.060629762,Be3As2(H2O5)2
mp-1955,-0.271208097,ErCu
mp-8372,-0.365143265,CaSi2
mp-707218,-2.770898218,Ba3AlHO4
mp-684534,-2.702337262,LiNbP4O13
mp-772758,-3.856448815,Sm2Zr2O7
mp-559287,-1.238499468,Ho2Sn3(PbS4)3
mp-18196,-1.516007245,Ba(TmTe2)2
mp-31760,-3.121256976,Sr2TaFeO6
mp-19511,-2.103741953,Li5FeO4
mp-17833,-1.44488641,Ba3GeO
mp-567334,-0.943460515,Ag(BCl)6
mp-4024,-0.915989483,DyAgTe2
mp-3669,-1.431394431,Mn(NbS2)4
mp-752998,-3.451072149,U3O5
mp-5588,-3.860757887,BaSiF6
mp-755980,-1.652536911,SrCaI4
mp-981365,-0.296559067,V2ReRu
mp-696752,-2.241057288,KP(HO2)2
mp-6686,-3.012738399,K2NaInF6
mp-570836,-0.634993208,K5Ag2(AsSe3)3
mp-570428,-0.282740252,Sc3In
mp-15643,-0.538333036,SrMgGe
mp-12977,-0.812677618,Dy2CdPd2
mp-976143,-0.311640476,PrDyZn2
mp-28495,-1.240077603,ZrBr2
mp-975421,-0.467172389,RbAgO3
mp-743873,-2.840090361,SrLaMnSbO6
mp-553303,-0.980525959,CsCu3O2
mp-28211,-0.860899451,IrS3Cl11
mp-752693,-2.853398772,Ba3(ClO)2
mp-20263,-0.465370039,CaIn
mp-554475,-3.223535602,LaNb2ClO6
mp-9676,-0.500860364,K2NaGaAs2
mp-11142,-0.218928299,SrCu9Si4
mp-753627,-2.853168637,LiTiP2O7
mp-27171,-0.597624762,Hg2P2S7
mp-989642,-0.302519366,Cs2NaAlH6
mp-16870,-1.574237014,Ba2CdSe3
mp-862996,-0.422528141,Pm2CdIn
mp-627418,-1.6097587,Ge7H18O23
mp-772581,-2.162785972,LiCr6O11
mp-14476,-1.564415416,LiRhO2
mp-669311,-0.312613665,In7Te10
mp-623295,-0.283960061,SmGaCo
mp-6345,-2.645663032,Ba3TbRu2O9
mp-559200,-0.975167432,Cd(InS2)2
mp-753721,-4.204152233,GdOF
mp-27926,-1.932989199,AsClF8
mp-557355,-2.753951626,Rb2SiP4O13
mp-1018673,-0.598976394,CoPPd
mp-758536,-2.404678224,KAl2P2H4O11
mp-554430,-1.023233657,NaCu(IO3)3
mp-558059,-2.950196879,LiMnF4
mp-28150,-3.231883494,BaNb2O6
mp-753741,-1.198376298,Li3CuS2
mp-14785,-0.283509785,Ba(Cu2P)4
mp-7258,-1.847618735,K4SnO4
mp-22478,-0.122352672,FeGe
mp-11449,-0.264132752,HfMn2
mp-779298,-1.967168714,Mn8O13F3
mp-2247,0.339057667,AgN3
mp-775301,-3.055829353,LiV(Si2O5)3
mp-690575,-1.352782929,Nb2NiO6
mp-20847,-0.346264481,Ti5Sn3
mp-645663,-0.491452359,Te2Mo3Se7Br10
mp-4701,-2.435718648,CuSnF6
mp-972082,0.350544474,Tl3Si
mp-764518,-2.313277954,LiFe8(BO3)8
mp-10173,0.00197402,Li
mp-770552,-2.123446741,Li4Ti2Cr3Ni3O16
mp-771059,-2.248034304,Li4Nb2Co3Sn3O16
mp-644827,-1.103686114,TePCl9
mp-581955,-2.752405159,CsSi2SbO7
mp-682,-2.944992325,NaF
mp-777566,-3.21360076,LiVF4
mp-23102,-2.454410129,Sr2Cu(ClO)2
mp-27308,-2.102075756,SbBrF8
mp-21229,-0.537550794,Eu(SiAu)2
mp-763217,-2.294628068,LiNiPO4
mp-778405,-2.779578066,LiFe2F5
mp-1546,-0.06651034,DyMg3
mp-30502,-0.254956051,TmCd3
mp-18033,-2.796632796,Na2Cu(Si2O5)2
mp-22524,-3.132176442,CeP2O7
mp-558829,-2.444467086,Cs3Yb(SO4)3
mp-20347,-1.038470207,NdSnPt
mp-758068,-2.540233993,K2Yb2O3
mp-684580,-0.283532028,AgI
mp-753722,-0.847729317,LiCuS2
mp-17886,-0.368134539,K2Al2Sb3
mp-189,-0.652188976,SiRu
mp-771843,-2.565643698,Mn3(PO4)2
mp-19328,-2.11269928,NaWO3
mp-5662,-0.278523523,Ce2Fe17N3
mp-12146,-3.540803105,CaB2F8
mp-733862,-2.288779826,KCaP3(HO2)6
mp-568896,-1.374229588,La(AlBr4)3
mp-557655,-1.817289847,GdTlS2
mp-973508,0.047559655,KRb3
mp-769010,-1.672492883,Li6Bi5O14
mp-6535,-3.255404204,NdAl3(BO3)4
mp-559023,-1.457686618,Na24In5O15
mp-9968,-0.740669628,PrSi
mp-755813,-3.20691831,Sc6N2O5
mp-21523,-0.455145775,La(In2Au)2
mp-14038,-2.649244611,Rb2NaRhF6
mp-20698,-0.502253072,LiCoAs
mp-41,0.08429735,Zr
mp-5933,-3.502936371,BaTiO3
mp-570362,-0.339987304,Sr5In3
mp-764612,-2.365070774,LiFe2(BO3)2
mp-755624,-3.142954205,Ca2PrO4
mp-1013551,-0.536715413,Ba3P2
mp-684028,-2.576974669,Li3Bi(PO4)2
mp-977539,-0.147070526,LiNd2Ru
mp-753912,-3.727095907,CaTb2O4
mp-1006328,-0.522021213,LiCeSn
mp-974625,-0.058203509,Re3Ru
mp-780140,-1.691460325,Li5(CoO2)4
mp-8076,-1.86741931,Na3SbO3
mp-28663,-3.187683318,Mg14Si5O24
mp-2757,-0.168156272,CdAu
mp-780738,-1.106633108,H4WNCl6
mp-600663,-0.561112817,CeGaNi
mp-14070,-2.868744721,RbAlO2
mp-764769,-3.142343582,Li4VF7
mp-778147,-2.024753141,Na5Bi2P(CO4)4
mp-27094,-2.548359013,LiSn2(PO4)3
mp-10429,-3.905737786,LaYO3
mp-568742,-0.314052832,HgI2
mp-3469,-0.557023975,ZrNi2Sb
mp-558164,-3.961925717,CaHf4O9
mp-778009,-2.082172886,LiBi6B3O14
mp-13982,-0.740419006,CdCu2GeS4
mp-753401,-3.827656421,Sc2TiO5
mp-9252,-0.456083502,HgS
mp-866002,-0.276870969,YbTl2Cd
mp-778506,-3.185058968,Li2VF5
mp-866376,-0.33487785,TiMn2Ge
mp-562537,-1.144218661,Ta2Ni3S8
mp-540,-0.276331903,ScFe2
mp-560776,-2.642161016,Sr3Cu3(PO4)4
mp-867699,-1.6192918,Li4TiS4
mp-558160,-3.114429908,NaYCO3F2
mp-19430,-2.571248306,Li3Fe2(PO4)3
mp-865921,-0.68362309,MgAlIr2
mp-567841,-0.239555721,Be3P2
mp-21483,-0.276287629,Nd3In
mp-768419,-1.144781256,La(ClO4)3
mp-775204,-2.429499806,Li2V3WO8
mp-19495,-2.894855881,NdCo(BO2)5
mp-8568,-2.729617271,Ca4PtO6
mp-569188,-0.788342692,La(AsRu)2
mp-759624,-2.549798117,Li3Bi(PO4)2
mp-743605,-2.527384138,ZrCrCu2(PO4)3
mp-567373,-1.517936349,LaCN2Cl