id,band_gap,pretty_formula
mp-743988,3.5889,Na3CrH14(C3O8)2
mp-768979,4.3262,Ba3Y2Cl12
mp-770571,3.7762,Ho2WO6
mp-755256,3.3122,LiBiB2O5
mp-11902,1.4002,Ba2GeSe4
mp-554082,3.122,Ho2Hf2O7
mp-722684,5.6447,KAlP4(H2O7)2
mp-26407,4.1199,Li2SnP2O7
mp-779979,1.9602,Hf2N2O
mp-578752,0.8611,Sr11InSb9
mp-31305,1.0253,Hf(TeCl)6
mp-755943,2.6263,CaPbI4
mp-2133,0.7316,ZnO
mp-613910,0.4727,BaNiF6
mp-776618,1.8945,Li4VCr3O8
mp-755277,2.7605,Tb3SbO7
mp-766572,5.0338,Mg3P2(HO)16
mp-558428,4.3063,Ba9Sc2(SiO4)6
mp-16598,3.7556,K3TmSi2O7
mp-744260,3.7484,LiLa(MoO4)2
mp-15003,4.6792,Ca3HfSi2O9
mp-976447,4.0045,NaCrH8(NF3)2
mp-573710,2.1028,CsTbZnSe3
mp-3188,0.5422,Zn(SbO3)2
mp-541403,1.3402,Hg7(P2Br3)2
mp-772497,5.5841,Er4(B2O5)3
mp-777010,1.2056,Li4Ti3V3(CoO8)2
mp-22897,2.7385,HgCl
mp-540550,5.2933,NaH2ClO5
mp-774463,2.8011,Li3Cr2(PO4)3
mp-558011,2.7656,Cd2H2SO6
mp-17187,4.9195,K3Nd(PO4)2
mp-30958,3.0095,Ca(BS2)2
mp-769554,2.4153,LiMgCr3(SO4)6
mp-773582,1.2835,LiTe(H3N)4
mp-625452,3.812,Pr(HO)3
mp-558749,2.9656,RbMnF3
mp-765195,1.6288,WO2F
mp-530571,2.3778,Na4Sn3O8
mp-561307,2.7667,DySCl
mp-626689,2.28,Fe(HO)2
mp-40286,1.6797,NaLiLa2Ti4O12
mp-864664,1.253,Na3Np(HO3)2
mp-680055,2.3639,CdI2
mp-755526,1.8972,Ba2Ti6N2O11
mp-625614,3.9354,H9BrO4
mp-31039,0.8487,Rb6Te2O9
mp-24502,4.6505,ZnH2(SO4)2
mp-580541,5.0722,Cs2NaSmCl6
mp-571293,1.5115,Rb2BaNb2Se11
mp-16915,3.3404,BaTiOF4
mp-2310,1.2577,CdO2
mp-572951,4.4582,CsNaSi2O5
mp-6526,1.9731,NaGeSbO5
mp-1019601,2.1244,CeZr7O16
mp-770647,3.2726,Li2SiSnCO7
mp-769552,2.4957,LiMgCr3Se2(SO6)4
mp-23520,1.8615,InPb2I5
mp-21365,1.4658,InSbS3
mp-560260,4.3605,CsLa(SO4)2
mp-864954,0.7705,MgMoN2
mp-626787,1.5255,VHO2
mp-13983,1.5971,ZnPdF6
mp-626879,0.6553,V3(HO4)2
mp-985585,4.6814,Li3ClO
mp-771193,2.5467,Ba3Y2O6
mp-699558,3.3377,K10Zr3Cd(MoO4)12
mp-764019,1.6074,Li2TiNiO4
mp-19803,0.9135,CdIn2O4
mp-27487,2.1793,Li2ThN2
mp-24130,5.6011,CaP2(HO)4
mp-14407,1.3385,Rb7NaGe8
mp-673059,3.933,LiSbP2O7
mp-765597,2.7666,HS2IO8
mp-1008528,1.0859,B2AsP
mp-996948,1.1067,CaCr2O4
mp-16461,2.8781,Gd2Si2O7
mp-1224,1.1911,HgO
mp-29410,2.4427,Li2B2S5
mp-560978,3.5745,Ba4Al2O7
mp-770248,0.9401,LiMnPCO7
mp-541272,3.385,LiGe2(PO4)3
mp-29764,6.691,RbHF2
mp-768770,3.8759,Mg(ReO4)2
mp-546011,1.2068,YZnAsO
mp-672212,1.6993,NaNb13O33
mp-17807,1.7496,LiUNbO6
mp-28383,2.4851,KNaS
mp-560370,2.0163,Ge(PbS2)2
mp-775211,3.6112,Ho2WO6
mp-780543,0.5368,Li2MnCr3O8
mp-757131,3.3548,Sn(PO3)4
mp-9785,1.9522,BaHo2PdO5
mp-558990,5.6047,K2Sr(PO3)4
mp-28368,1.7705,TlAuCl4
mp-776880,1.4032,Li2Fe2Ni(PO4)3
mp-730945,5.0879,KAl2P2H5O11
mp-774530,2.2143,Ba4Ti11O26
mp-989189,1.6073,SbBrO
mp-27189,4.7516,Si3Cl8
mp-557763,2.8046,Nd3NbO7
mp-753823,1.7974,CeTh3O8
mp-759356,5.1434,AlH3NCl3
mp-677378,2.5927,TiNbTl(O2F)2
mp-759207,1.2294,LiSb(TeO4)3
mp-28178,2.2372,NaNbCl6
mp-23404,3.007,TlBrO4
mp-1001024,1.7768,Y2MgS4
mp-758245,3.273,Li3SiBiO5
mp-773707,0.9552,Li4Ti3Mn2V3O16
mp-18719,3.2481,KLu(WO4)2
mp-560899,5.5915,CaB3H5O8
mp-757224,4.1911,Th4P6O23
mp-733932,3.5032,InH5(NF)2
mp-13530,3.6932,SmAsO4
mp-608106,1.7917,P4S3I2
mp-18732,2.7244,TiNiO3
mp-33318,3.372,Ca11Al14O32
mp-673644,1.8722,Tb2S3
mp-9583,4.3556,K2ZnF4
mp-693892,1.1316,Sr2CrClO4
mp-756402,4.6373,YHO2
mp-558862,4.3844,NaGe4(PO4)3
mp-567575,4.3921,Cs2Na(C2N3)3
mp-13610,1.9585,ZnPbF6
mp-676459,5.8457,Ca2LaF7
mp-3448,6.9537,KMgF3
mp-764405,2.1671,KFeH2S2O9
mp-755451,3.1272,BaLa2Br8
mp-29178,4.5803,TePbF6
mp-581609,2.5484,BiP(PbO2)4
mp-559057,3.4093,NbTl(BO3)2
mp-773128,1.4011,Li10Co4O9
mp-561294,1.4759,SrLi2Nb2O7
mp-740736,5.0552,NaP3H10(NO5)2
mp-553903,1.7136,KNa9In2O8
mp-626337,3.5641,Sr(H8O5)2
mp-557938,3.2222,HfVF6
mp-558165,2.1067,SbC(Cl2O)2
mp-5909,1.9737,Zn2GeO4
mp-540050,1.5585,Fe3P3O11
mp-542694,2.5131,HI3O8
mp-25486,3.0717,CoH8(IO5)2
mp-4482,2.6577,NaSbO3
mp-767255,0.8188,Li10Cr(SiO5)2
mp-628773,0.5078,SnSe
mp-560322,2.063,K2RuN3Cl3O5
mp-38152,1.7783,Sr(SmSe2)2
mp-991676,0.9817,NbCu3Te4
mp-849246,2.5158,Ti2CdO5
mp-28196,4.7228,KH9O5
mp-554443,1.1292,Na6Se2O9
mp-567543,0.2379,UHg3(TeCl3)2
mp-561725,3.8486,CsBO2
mp-770524,0.3503,Li4Mn3V3Cr2O16
mp-3762,1.0305,VCu3S4
mp-8621,0.9416,K2PtSe2
mp-770972,0.3289,Li2Ni3BiO8
mp-3283,3.3071,RbNbO3
mp-753539,3.354,SbOF
mp-24263,5.2102,KP(HO2)2
mp-694981,4.9472,Na4Al3Si3B(HO3)4
mp-776442,2.8288,Ba2YI7
mp-971684,1.1886,C3N4
mp-28166,0.889,K3BrO
mp-744148,2.5078,MnH8(NO5)2
mp-620652,0.3135,NaSr2AlP3
mp-761819,1.2894,Li4VFe(TeO6)2
mp-18376,3.2555,KHgC3(NO)3
mp-942704,2.7231,LiCoHSO5
mp-567931,0.4899,InSiTe3
mp-8285,2.1049,ZnGeO3
mp-6474,2.6515,Ba3MgNb2O9
mp-780204,1.5278,LiMnP4(H2O7)2
mp-778141,1.0092,Sm2Pb2O7
mp-780485,1.3803,LiVP2HO8
mp-29380,0.9645,K2Te2As
mp-24128,4.0856,ReH4NO4
mp-6610,4.1662,K3Cu(CN)4
mp-530545,0.6203,In4GeSe4
mp-777615,3.3325,Sb2(SO4)3
mp-572822,1.7,TiO2
mp-556655,4.864,Li2AlBO4
mp-31321,3.5567,La(C2N3)3
mp-756440,1.5499,Er2Pt2O7
mp-752402,3.1007,BaSrI4
mp-30548,5.7706,TlBF4
mp-24742,5.18,K2MgH8(SO6)2
mp-758096,1.9248,SbOF3
mp-753863,1.181,Li2Ti2S5
mp-542843,5.5978,MgB2P2H8O13
mp-8934,0.7658,Cs2SnAs2
mp-780154,2.7854,Li4FeO3F
mp-28266,0.3453,P2Pd
mp-680169,4.905,Na21S7Cl(O14F3)2
mp-685353,2.3087,Bi15PO25
mp-21945,0.3814,Ge3Ru2
mp-3372,4.9943,Rb2SO4
mp-13660,0.9137,Ca4Sb2O
mp-27358,2.8874,Se2O5
mp-863408,3.0344,LiSiBiO4
mp-696965,5.7523,Cs3TbF6
mp-770711,1.0688,GeWO4
mp-569337,1.8643,Na4Si2Te5
mp-28879,1.1444,Ca5P8
mp-541785,1.3837,GePdS3
mp-1020059,2.763,LiGe2N3
mp-770693,1.399,Li3MnAl2O6
mp-23366,0.6409,Rb2CoBr4
mp-673837,0.7912,Ba8Bi4O17
mp-753626,4.5289,Li2NdPCO7
mp-2574,3.8856,ZrO2
mp-1019508,2.1798,AlGa3N4
mp-841,1.9748,Li2O2
mp-9634,2.1819,Na3AgS2
mp-865101,0.3515,NaLi2Bi
mp-631589,1.323,VN2(Cl3O)2
mp-9910,0.5861,K2Pd3S4
mp-557649,2.2231,K2Ce(Si2O5)3
mp-675531,1.0109,NaBiS2
mp-625136,3.4329,CsHO
mp-649080,1.9333,Ti2SCl12
mp-15222,1.6537,Rb2NbCuSe4
mp-9682,2.3407,Na3AlSe3
mp-27375,1.1909,Tl4HgI6
mp-763983,1.2326,V2O3F
mp-757290,3.8907,MgH12SeO10
mp-505465,2.8936,As2Pb2O5
mp-558478,1.433,La3NbSe2(O2F)2
mp-557293,2.8338,Li2CdSiO4
mp-29567,0.8537,CuSe2Br
mp-9567,0.8566,Ba(MgSb)2
mp-505685,2.5628,Nb2Te4O13
mp-29946,2.9055,IO2F
mp-558318,4.0952,Rb2TbGa(SiO3)4
mp-30167,0.4892,Rb3Os2Br9
mp-4824,0.9143,NaZnP
mp-676629,2.8693,Sm2Th8O19
mp-772416,2.5061,Li2Ti3Sn(PO4)6
mp-505179,2.1641,NaH6BrO5
mp-555933,4.2884,Na2P2PbO7
mp-19015,2.4242,VCrMoO7
mp-676339,3.619,BaTa2O6
mp-849424,1.3984,LiCu2P3(HO5)2
mp-10337,0.7712,BaYAgTe3
mp-756400,0.5674,NdBiO4
mp-34903,1.5073,MgGeP2
mp-2910,6.9378,KAlF4
mp-38194,5.6457,YOF
mp-16163,1.8172,Pr3ReO8
mp-33363,1.9597,LiYS2
mp-7977,2.9092,CsSmO2
mp-29966,3.1443,NOF
mp-4202,4.0969,BaAl2O4
mp-23758,6.3547,KNa(BH4)2
mp-696989,3.5399,NaPH5C2SN3O4
mp-677725,1.4896,SrLa11Mg3Ga9O34
mp-640889,0.3841,Tm(CuTe)3
mp-770690,0.5237,Mn3TeO6
mp-23400,3.415,In(IO3)3
mp-11265,0.2466,BaCaSn
mp-696762,5.1055,TlP2H5O8
mp-849511,0.543,VO2
mp-28360,1.7082,Na3CrCl6
mp-722941,3.5917,CaZn2H12(BrO)6
mp-775372,1.574,Li5SbS
mp-558568,2.4876,Rb2CdSiO4
mp-555273,4.1976,Ca3Ge(ClO2)2
mp-607464,0.6253,Re2Cl5O4
mp-30295,1.1547,W6CCl18
mp-23101,1.2102,Nb2Bi2PbO9
mp-22936,2.3835,Ca2NCl
mp-761780,2.6149,LiCoPO4
mp-844,1.1111,Ca3N2
mp-677080,2.7982,K6Ba3Ta12(Si2O13)4
mp-622295,2.4968,NaMo(PO4)2
mp-559154,2.1037,Ti4Bi2O11
mp-6825,3.2076,Ho2Si4CN6
mp-23263,2.9251,LaBr3
mp-556516,0.7668,Tl2S
mp-554947,5.4139,NaSiBO4
mp-27181,1.4392,KAuCl4
mp-685120,1.1228,Al2Se3
mp-601210,3.0861,H5C2NO4
mp-770973,1.0016,Li24MnCr11O36
mp-763013,1.3917,Fe2OF3
mp-24181,4.6051,CsGaP3HO10
mp-630511,1.0162,Ca2FeClO3
mp-23513,1.8478,K2PtCl6
mp-6844,4.4357,KLi3Si12(SnO15)2
mp-779332,2.5867,B2TeO6
mp-766349,3.3672,BaCaI4
mp-28592,4.251,Li7Br3O2
mp-766287,3.0889,BaCa2I6
mp-4718,4.0346,NdTaO4
mp-4974,3.741,La2Zr2O7
mp-557679,4.2837,KNaSi2O5
mp-2136,2.2239,Sb2O3
mp-571306,0.2884,Ca2Zn2CuP3
mp-605912,1.1353,Al2NiCl8
mp-771890,1.9869,LiSnAsCO7
mp-850292,5.1993,Dy2H16S3O20
mp-768963,3.3492,SrLaCl5
mp-774609,3.1153,Na5Li3Ti5O14
mp-720110,1.3025,KRe3Os3(Se4Cl3)2
mp-680095,2.3417,CdI2
mp-770187,0.4236,Cr3TeO8
mp-29274,1.6916,P2PdO6
mp-622497,0.9519,V3O5
mp-14921,1.8609,Zn4B6SeO12
mp-753800,3.6661,NbOF3
mp-18786,3.0599,Ca2CoSi2O7
mp-3582,1.0453,Mg(BC)2
mp-6730,2.5636,Sr3ZnPtO6
mp-771643,3.077,Sr2CaI6
mp-553993,5.6413,SiO2
mp-1888,1.015,RbGe
mp-3466,4.1342,PrAlO3
mp-567320,1.4397,La5C2I9
mp-570213,0.3619,LiMgBi
mp-13772,4.7083,Li3Pr2(BO3)3
mp-27265,0.9757,AuClO
mp-768995,4.2693,Ba2Y5Cl19
mp-642735,3.3024,Rb2H4Pt
mp-542514,3.2381,Ho2Te4O11
mp-975031,3.3379,RbBeH3
mp-23276,2.1877,InCl
mp-556216,3.0606,HIO3
mp-765612,1.0386,Ba8Bi4O17
mp-556989,2.0305,ZnS
mp-555865,6.9476,Na2Sr7Al6F34
mp-16452,1.4559,BaLa2ZnS5
mp-754138,2.8477,CsDyO2
mp-562480,0.7323,TlIn5S7
mp-776687,3.8561,Li5FeF8
mp-771899,3.2207,Ni4P2O9
mp-770653,2.6749,Sr3W2O9
mp-673798,1.0264,K3ClO
mp-561392,2.7184,TcSO6F
mp-556666,2.2217,CaBiCO4F
mp-777294,3.7211,Bi2(SO4)3
mp-541361,1.7946,K2RuNCl5O
mp-752573,1.0117,Ba(NaSi2)2
mp-573721,1.0421,Cs2SiAs2
mp-867695,1.931,Li2WS4
mp-33335,4.2517,MgAl2O4
mp-770840,1.3477,LiVGaO4
mp-17926,0.4414,Zr3Ni3Sb4
mp-761711,1.4542,Li4V3SiO10
mp-31114,3.5596,Ho3GaO6
mp-774354,3.1486,LiMn2F5
mp-12453,1.6113,HoCuS2
mp-696136,3.3956,Li10Sn(PO6)2
mp-10930,1.2587,TbSF
mp-28597,1.216,Na5InTe4
mp-679991,2.1983,CuW3Br7
mp-763923,0.3777,Co3(OF2)2
mp-753775,2.7561,BaCaI4
mp-759838,3.2886,NaSn2(PO4)3
mp-10779,1.8952,RbNdSe2
mp-2245,4.6547,Si3N4
mp-561511,0.7067,FeAsS
mp-770551,1.1131,Li2MnAlO4
mp-15750,2.0967,TaAgP4O13
mp-755089,3.9645,ZrO2
mp-705896,2.3731,MgVFeMo3O14
mp-4016,1.7941,TlGaS2
mp-555155,4.8159,KNa2Y(Si2O5)3
mp-764747,0.7545,FeOF
mp-18911,2.1171,LiVP2O7
mp-3527,1.1437,Na3AgO2
mp-770256,1.6145,Li4V2(SiO4)3
mp-695890,4.9507,Mg10Si3(H2O9)2
mp-773864,2.2592,TiSnO4
mp-774951,0.686,Li2MnCr3O8
mp-763508,1.1285,V(CO3)2
mp-570232,4.5211,TbCl3
mp-770861,0.668,Li8Cr2O9
mp-4710,2.6125,Hg3(BO3)2
mp-695119,4.4926,Na3Zr2Si2PO12
mp-756473,1.9441,WSCl4
mp-770358,1.075,Li3V3(BO5)2
mp-743890,2.7422,Mn4Si4SnB2(HO9)2
mp-567743,0.7509,AlSb2(TeCl2)2
mp-560394,3.3366,AsPbClO2
mp-4123,1.4473,ErTlS2
mp-29078,0.7238,Hg4As2Br3
mp-28922,3.349,Ca2Si5N8
mp-547017,3.042,LiAlAs2O7
mp-3653,1.0375,Mg(SbO3)2
mp-567386,1.5523,Cs2Cd3Te4
mp-17297,5.7857,Na2GeF6
mp-781013,0.8002,Li3V2P4(HO8)2
mp-8756,2.5253,KLiSe
mp-558456,1.8293,Hg3Se4O5
mp-1018030,2.1896,Sr2SO
mp-30980,4.1331,NaYO2
mp-569435,1.6133,KBi(PSe3)2
mp-697734,1.1881,MoP4O13
mp-989523,4.5539,Rb2NaAsF6
mp-12862,4.0562,LuTaO4
mp-642350,4.3497,KLa(PO3)4
mp-19504,1.8964,BaV2(CoO4)2
mp-764685,2.222,LiVOF3
mp-23784,5.829,NaB(H4O)2
mp-753202,0.6946,Li5CuF8
mp-780156,0.7241,Li5Mn6(BO3)6
mp-680676,0.8911,K2Dy4Cu4S9
mp-769280,2.9774,Ca5Ta4O15
mp-17836,3.8754,BaNd2BeO5
mp-505701,5.6395,NaP2H5O8
mp-755260,2.4334,Cd4B6O13
mp-22009,1.3133,PbSe
mp-699575,2.6041,CoSiO3
mp-23870,3.7667,NaH
mp-754853,4.4855,CaHfO3
mp-770756,3.5125,Li3SiSnBO7
mp-752514,3.6362,BaSrI4
mp-13546,3.772,Y2Ge2O7
mp-971,1.7109,K2O
mp-626483,5.295,H4SO5
mp-760468,3.3213,LiSi2BiO6
mp-14665,5.6585,KNd(SO4)2
mp-7798,2.6358,MgGeN2
mp-756850,3.7125,LuAlO3
mp-19913,1.1076,Ba3(InP2)2
mp-555606,3.9498,Na10Be4Si4O17
mp-27506,1.3426,K3W2Cl9
mp-763619,3.3925,Li2Fe(SiO3)2
mp-559826,1.7457,ErCuS2
mp-765457,2.9514,LiMnF3
mp-7582,2.5768,GeS2
mp-4809,1.5693,Ga2HgS4
mp-27138,1.2038,K2PdBr4
mp-1019604,5.8458,Cs2B2S3O13
mp-989405,1.5789,Cs2LiInBr6
mp-850230,0.9959,Mn9Zn6Si4(SbO14)2
mp-554955,1.6434,MgCrF6
mp-676338,1.2957,MgIn2O4
mp-554240,4.087,NaCa4(BO3)3
mp-867627,1.5659,Ba4(PtO3)3
mp-571502,1.5866,Ga(BiBr)4
mp-10694,6.104,ScF3
mp-558514,5.1017,RbZrCdF7
mp-669465,2.119,Te2S4(NCl3)3
mp-23104,2.5772,Pb2ClOF
mp-27996,4.4901,H2SeO3
mp-768738,2.8868,Li3Bi(BO3)2
mp-759396,3.9798,LiBi3(P3O10)2
mp-4651,1.849,SrTiO3
mp-865606,0.9868,CsTaGeS5
mp-754114,3.5108,SrSc2O4
mp-10368,0.6158,CoPSe
mp-767063,3.5944,Sn(PO3)2
mp-735545,2.1756,Rb2FeH2Cl5O
mp-17566,0.9387,Ba5P4
mp-19388,2.8552,BaNi2(AsO4)2
mp-989191,1.8703,SbOF
mp-770645,3.9011,Li8HfO6
mp-559182,0.8571,P2IrClF6
mp-675651,2.8434,MgPS3
mp-625957,3.0344,Ta2H4O7
mp-771944,3.7819,Ba3La2Cl12
mp-764702,1.5926,LiFe2(BO3)2
mp-680493,3.8399,K3Co(CN)6
mp-22724,0.3046,CeZrF7
mp-754964,4.0734,HfZrO4
mp-22467,2.0634,Sn(PbO2)2
mp-676512,6.555,Na3AlF6
mp-17208,4.2813,K2Li14Zr3O14
mp-645326,1.2291,Al3Bi5I12
mp-22955,3.6479,LiIO3
mp-989637,1.7867,BaReN3
mp-571222,4.2579,CsBr
mp-30452,0.2139,DyNiBi
mp-28698,0.4333,Na4IrO4
mp-697769,1.8637,Mo(PO3)4
mp-768216,3.7583,Li2BiPCO7
mp-759242,3.3473,InH10N2Cl5O
mp-761486,3.4905,LiFePO4
mp-3336,3.3829,LaGaO3
mp-546684,0.6831,PdSeO3
mp-756007,0.6326,Li3Cu3(PO4)2
mp-36029,0.7084,ErAgS2
mp-772640,3.1283,Ga2WO6
mp-775199,2.1455,LiMnVO4
mp-690548,0.8966,NaMgFe(SO4)3
mp-989537,4.0079,Cs2TlInF6
mp-780432,3.7948,La3Al5O12
mp-643004,1.744,SrMg2FeH8
mp-570552,2.4244,CdI2
mp-770401,3.3307,SbPO4
mp-28204,4.589,CsH7O4
mp-17922,5.5021,Ca2P2O7
mp-555721,1.1306,Sr4GaN3O
mp-1074,1.35,RbSi
mp-763425,1.4012,LiMn2F7
mp-11017,2.2756,KCd(NO2)3
mp-12455,1.6603,TmCuS2
mp-542888,1.9493,La3AgSnS7
mp-1013548,0.4096,Ca3SbN
mp-763349,3.969,Li2MnF4
mp-699213,3.9656,CsZn2P2HO8
mp-8946,1.7535,TlBS2
mp-6452,2.9988,BaSm2ZnO5
mp-568478,0.26,Nb6Tl2VCl18
mp-1019584,4.6051,CaAl2SiO6
mp-776437,2.1631,LaTa2NO5
mp-558533,1.4115,Nd3U(ClO2)3
mp-756637,2.5962,Ba3GeO5
mp-561102,2.3885,InBiO3
mp-768280,5.4084,Sm2B4O9
mp-560773,5.092,K2NaS2ClO6
mp-9321,0.8788,Ba2HfS4
mp-35596,1.3682,Fe2NiO4
mp-1707,3.8159,BaN6
mp-772441,2.337,Y2W2O9
mp-559962,5.6815,SiO2
mp-18977,3.18,Ba2CaWO6
mp-28156,2.4701,NaGdCl4
mp-755175,5.4924,Al2O3
mp-23421,5.4786,LiYb2Cl5
mp-567424,1.2016,K8NbAs5Pb
mp-753123,0.2553,Li2CuF4
mp-771025,2.1619,Na2SiBSbO7
mp-15590,2.8445,Sr2Nb2O7
mp-9298,1.6,Sr(AuO2)2
mp-546190,0.3394,Ag2O3
mp-707441,1.8345,SnH12Pt(N2Cl3)2
mp-9230,3.0235,KAlAs2O7
mp-641661,2.5833,XeF6
mp-753287,0.4097,CaCdO2
mp-991652,0.6165,VCu3Te4
mp-849459,1.8154,Li2FeO2F
mp-770546,2.8466,Li2Mn2P2O7F2
mp-541687,2.0915,K3GaSe3
mp-758007,5.4657,Ba2CaP4(H3O8)2
mp-707391,3.2867,Na3AsH24SeO15
mp-557741,2.3153,Ba17Tm16Zn8Pt4O57
mp-774246,1.9967,Nb9VO25
mp-8818,0.7625,Ca2ZnN2
mp-23434,0.5622,Al2CuCl8
mp-1020164,4.8522,Na3LiP2O7
mp-766256,4.0595,YTmO3
mp-766870,0.525,Mn5O9F
mp-18990,3.9834,Ba2Mn(BO2)6
mp-558702,3.4542,CsMnF3
mp-653559,1.7175,P4Se3I2
mp-754341,3.1026,Ho2TeO6
mp-757715,2.6502,Tb(BiO2)3
mp-777559,3.1785,LiFeF4
mp-22888,4.5304,CaBr2
mp-643047,3.17,Ba3(H6Ir)2
mp-4602,2.7308,Tb2Ti2O7
mp-21949,2.279,K4PbO3
mp-600052,5.5002,SiO2
mp-863880,0.9729,Li6VFe5O12
mp-773111,4.2082,Ba2LaCl7
mp-865521,2.1804,LuI3
mp-18540,1.5358,CsEr2Cu3S5
mp-764720,1.8018,LiFe2(BO3)2
mp-772290,1.0933,LiAgO
mp-868000,3.4205,Ba5Y3Br19
mp-779074,2.8964,Li8Mn7Fe(BO3)8
mp-776658,2.2843,BaO
mp-556108,3.1655,DyTiClO3
mp-780402,2.833,Sc2Ti2O7
mp-559210,1.6948,Ca5Te3O14
mp-556979,2.4632,CsSmGeS4
mp-699261,3.1973,CdH16C4S4(N4Cl)2
mp-8978,1.5266,CsNbN2
mp-9360,0.2529,CaU(PO4)2
mp-3967,3.3853,NaNO
mp-773501,0.3581,Li3MnV2O6
mp-650715,3.2557,Gd2Be2GeO7
mp-13042,3.8935,NaSr3TaO6
mp-764496,1.3427,Na14Ni2O9
mp-18168,3.7543,TlZnPO4
mp-1019892,4.3865,La2B8O15
mp-778072,6.1194,Ba2Y5F19
mp-569687,0.6308,CuHgSeCl
mp-680247,3.5462,K3P6S6N7
mp-3551,0.9263,TbAgTe2
mp-777766,2.5571,Li3NbHO2F7
mp-572598,2.4126,Cs2Ge2S5
mp-694917,0.5367,Na4CaFe4(PO4)6
mp-560412,3.4638,GdP4H4NO12
mp-758059,2.1217,Ba7Pb17O24
mp-730972,0.3784,UP3H10ClO8
mp-560345,1.3256,Cs3CuTeS9
mp-27478,4.2294,Na3PaF8
mp-34656,5.9971,Cd(CN)2
mp-1500,2.1641,BaS
mp-23398,3.3033,BClF6
mp-24333,0.5451,UH12(ClO2)3
mp-771523,0.4267,LiCr2O4
mp-754191,2.0596,La2Ti3O9
mp-29783,5.9612,B5H9
mp-568954,1.1943,Nd3CuGeSe7
mp-1639,4.4678,BN
mp-306,6.3063,B2O3
mp-604120,4.9267,PH6NO4
mp-28952,1.0606,PdSO4
mp-777427,1.0464,Li4Mn2V3Sn3O16
mp-30274,4.241,AcBrO
mp-558186,6.7538,RbLu3F10
mp-978284,5.2645,Na2P3HO9
mp-641923,1.4389,Cs2SnBr6
mp-5052,2.4315,TiCdO3
mp-1714,0.6958,FeSi2
mp-763291,0.7906,V3O5F
mp-772609,1.5065,La2Zn2O5
mp-755061,3.7126,SrCaI4
mp-1020141,4.4468,Na2Al2Si3O10
mp-782650,1.0324,LiMnP2O7
mp-687227,1.1327,MnSb2Pb5O11
mp-30253,0.6759,Na10SrSn12
mp-21922,3.0002,Te3(PbO4)2
mp-5072,2.0173,Rb2HgO2
mp-37108,2.1032,Sr(NdS2)2
mp-755231,2.1355,LiTeO3
mp-768305,3.6916,Sr2HfO4
mp-8957,2.5378,Na5TaO5
mp-625415,3.7111,Tb(HO)3
mp-8762,2.6492,Er2S2O
mp-6548,2.0435,K2La2Ti3O10
mp-758868,5.3035,MgBP(H3O4)2
mp-770456,2.3823,Li6Ti2O7
mp-624190,1.7596,GePbS3
mp-541459,3.0232,KSnPO5
mp-558924,5.2183,Na5Ga3F14
mp-753277,1.2161,LiAgF2
mp-2490,1.5928,GaP
mp-15079,6.0599,Cs4KLiGa2F12
mp-753098,1.8469,LiCuF2
mp-41191,3.2016,Na3Ti2P2O10F
mp-705547,0.8159,Fe2O3
mp-634381,2.0312,V2Zn2O7
mp-619064,1.1002,PrMnGeO5
mp-626552,3.8138,Ca(H8O5)2
mp-32581,0.8831,Pr2Te3
mp-735529,3.3208,FePH6NO5
mp-780876,2.7067,Li6Fe(OF)3
mp-753662,2.888,K2Mg2O3
mp-35082,6.0682,BH6N
mp-17709,3.1371,Na2ZnSiO4
mp-691065,1.9675,K6Ba2CaU6O24
mp-18610,2.6078,Sm2SiSeO4
mp-669498,1.9676,K2Pt(NO2)4
mp-13230,6.4632,K3YF6
mp-10348,4.1081,LaSc3(BO3)4
mp-30150,4.8964,GaBH6
mp-756469,4.634,DyLuO3
mp-3839,0.2033,GaCuTe2
mp-850999,0.0327,NaCr4O12
mp-669528,2.0003,Na2UO4
mp-985592,2.1394,Li6PS5Cl
mp-759933,2.385,Li2Sn(BO3)2
mp-753418,3.6062,SrNd2O4
mp-560993,5.2362,CaAl12Si4O27
mp-684679,1.3498,Sb6O13
mp-1007637,2.5305,KNaH2
mp-561246,2.7587,Al2Si2Pb2O9
mp-3414,1.7672,AgSbF6
mp-34361,0.6401,Tl9BiTe6
mp-1019778,5.5903,K2Li3B(P2O7)2
mp-764900,1.3161,VOF
mp-573321,0.5268,TePdI2
mp-770591,0.8267,Li3MnAlO4
mp-738624,5.06,SmP2H9O11
mp-5840,3.904,LiScO2
mp-984718,1.1513,BAs
mp-18869,0.6534,Na4Mn2O5
mp-775763,3.0247,AlBiO3
mp-21137,1.4844,Ca2PbO4
mp-10487,0.6292,RbSb
mp-765894,2.483,Li5VF8
mp-36248,4.0546,H4BrN
mp-866660,1.2085,K3P2AuSe8
mp-562667,2.1603,Ag3N5O6
mp-29549,3.9322,Si(PH2)4
mp-780409,4.3796,La4Al2O9
mp-554681,2.0175,ZnS
mp-755480,1.2445,KRbO
mp-771828,4.0253,Dy2Zr2O7
mp-552663,3.4538,LiScAs2O7
mp-675770,0.2035,Nd3U2O10
mp-37879,1.5505,LiYSe2
mp-759185,3.7289,LiSb(PO3)4
mp-5189,3.8667,AlAsO4
mp-38950,1.6509,Ce2Y2O7
mp-540022,0.495,MnPO4
mp-752501,3.0343,LiSiBiO4
mp-866661,1.6543,K3Dy(AsS4)2
mp-31229,2.2099,Na4(BSe)9
mp-763020,1.9295,Fe4OF7
mp-27445,1.312,As(IF2)3
mp-772797,0.5654,Ti2Cu(PO4)3
mp-7117,3.0232,LiAlSe2
mp-1016827,1.0993,MgGeO3
mp-10164,0.2146,NaGaTe2
mp-560853,2.4541,Tb3Si2S8I
mp-557538,3.4168,Na2Gd2MgSi4(O6F)2
mp-560127,3.1968,K2MnF6
mp-561385,3.4711,SrTeO3
mp-753917,4.5549,Y2HfO5
mp-554749,2.2494,P3IrO9
mp-14694,0.6038,CaCuP2O7
mp-6305,2.539,K3TiO4F3
mp-695800,3.8581,KScAs2(HO4)2
mp-769347,5.0075,MgSO3
mp-772835,4.3288,K2NdPCO7
mp-7824,1.7027,K2ReF6
mp-23257,4.6815,IF5
mp-995218,3.3281,H4C5O2
mp-866635,2.1352,CuH3NCl
mp-547125,1.3711,TbBi2ClO4
mp-17761,3.4751,CaGeO3
mp-10509,4.9695,BaGaBO3F2
mp-758006,4.1639,Ca2SiO4
mp-779729,3.8076,Na2Ti2O5
mp-625803,3.8525,Sr(H8O5)2
mp-557824,1.3561,Rb2(ReS2)3
mp-10293,2.1132,BaC2
mp-775699,1.1415,Li6V3Sb3O16
mp-768326,1.1476,Na4Sn2C4SO16
mp-510709,3.8953,SrAsH3O5
mp-29363,0.8513,Rb3GaP2
mp-560900,3.0727,RbSb2C2O4F5
mp-19336,1.0849,Nd2MnCoO6
mp-28541,4.5391,Bi2P4O13
mp-28591,0.0412,Na4HgP2
mp-7061,0.8622,NdZnAsO
mp-12644,2.8519,Ba2LuNbO6
mp-767192,3.0537,Sn(PO3)2
mp-756235,3.234,Ba3SrI8
mp-763345,1.1164,Li2VO2F
mp-754154,2.8291,CsHoO2
mp-27625,1.4182,Ge19(PBr)4
mp-541338,5.6742,AlPO4
mp-6118,0.6,Ca3Cu3(PO4)4
mp-771199,0.4066,V3FeO8
mp-18220,5.0581,LiAlSiO4
mp-7769,1.4425,Th2SN2
mp-557290,3.895,Na2Si2O5
mp-20878,2.1326,PbO
mp-752424,3.6342,Ba4Br6O
mp-24044,4.1372,CaH12(BrO3)2
mp-766348,3.6308,BaCaI4
mp-769592,2.154,Na3VPCO7
mp-549475,1.2916,TbBi2BrO4
mp-759183,2.268,K2Mg(H2N)4
mp-8958,0.246,RbPd2F5
mp-863076,2.3487,NbBiO4
mp-776825,6.1382,BaY3F11
mp-24367,4.1686,Na2AsH15O11
mp-14285,0.4336,CoP2
mp-18164,1.4081,Tb3S3N
mp-1008223,3.158,CaSe
mp-5594,4.2797,Sc2Si2O7
mp-8753,0.9356,K4HgP2
mp-4886,2.4505,NdCuO2
mp-23029,1.8674,Cs3Sb2I9
mp-17583,2.6909,Gd2TeO6
mp-556399,2.8572,LaTiI5O16
mp-545788,0.4723,Ba3ZnN2O
mp-9576,1.1208,KSbSe2
mp-554216,2.0899,K3Bi(PS4)2
mp-972600,1.6532,UCd(PbO3)2
mp-561449,0.667,OsOF4
mp-29895,2.4206,Rb3Bi2I9
mp-769635,1.3224,Li2VCrO4
mp-779864,1.9892,Hf2N2O
mp-704546,2.6639,RbNaCr2O7
mp-643896,4.3874,Na2Hf(HO)6
mp-770715,2.8696,Ga2WO6
mp-555679,0.3066,Na2UF6
mp-7462,1.4271,Hg2SeO4
mp-530449,3.6298,Ca3(AsO4)2
mp-35746,2.1883,Sr(YS2)2
mp-25305,0.788,Y2Ti2S2O5
mp-676673,2.2913,NaClO2
mp-754165,2.6997,ScGaO3
mp-766134,2.3813,UH12(NO7)2
mp-662499,4.6099,RbMgCl3
mp-755027,0.2812,In2Sn2O7
mp-555418,3.1097,Rb3NbH4(C2O5)3