id,formation_energy_per_atom,pretty_formula
mp-540923,-0.873319111,Ba3SnP3
mp-4682,-1.455161539,ZnSeO3
mp-6312,-2.40484265,Sr2CuCO5
mp-3080,-2.778983549,Ca5(Ga3O7)2
mp-22856,-0.741191823,Bi2S3
mp-782640,-2.034207386,K8Li3Cr4O16
mp-898,-0.419810957,HoAl3
mp-766343,-1.710593579,Ba2CaI6
mp-976982,-0.033588015,Li2Mg
mp-730074,-0.856880009,Rb2CaH8(N3O)4
mp-28555,-2.430211551,RbSF5
mp-764478,-2.313826018,LiFe8(BO3)8
mp-862561,-0.609738886,ScSbRu2
mp-752705,-2.74476028,Ti(PO3)4
mp-1013549,-0.793186171,Ba3BiN
mp-632684,-1.766964921,NaPH3NO3
mp-760109,-2.002885322,Bi2(SO4)3
mp-554957,-2.117396421,Te3I(OF5)3
mp-1007770,0.106930322,TlAs
mp-18949,-2.162894627,VFeO4
mp-30937,-0.595378881,HgClO3
mp-689925,-2.357668761,Cs2NiF6
mp-42175,-2.014295411,Ca2AlH10ClO8
mp-669354,-2.807016621,LaNb2CuClO7
mp-616439,-1.709521514,Cs2CuCl4
mp-30595,-0.357530864,CuSnRh2
mp-705024,-2.578942632,VP2O7
mp-979924,0.024160538,Dy3Y
mp-762244,-2.34612658,Li2AgF4
mp-31054,-1.527294955,La3(VN3)2
mp-780857,-3.046786915,Li2VOF4
mp-772086,-2.614116291,Ba4Sn3O10
mp-531722,-2.847611438,Li5Nb6O18
mp-758329,-2.785071278,YbCO3
mp-755542,-2.579428307,K2TiPCO7
mp-5971,-1.008989047,YBPt2
mp-1039,-0.874229403,MgTe
mp-12205,-3.429921963,Ti4O7
mp-25456,-2.089347506,Li2CuPCO7
mp-764087,-2.668287377,V2(OF)3
mp-557480,-1.714612992,Te2SO7
mp-30379,-0.232543827,GaAu
mp-17841,-3.112950246,Mg4Nb2O9
mp-568599,-0.565790355,Sm(NiSb)2
mp-9297,-1.458289436,Ba(AuO2)2
mp-2016,-0.27613455,PrNi2
mp-975729,-0.500906937,Pr(BRu)2
mp-778074,-2.229454973,Mn7Cr(PO4)12
mp-779250,-2.322342185,Li2FeBO4
mp-868003,-0.70849097,LaInAu2
mp-862704,-0.664104066,ScZn2Pt
mp-18928,-2.612056197,Mn2SiO4
mp-585949,-0.148173444,CaCu
mp-676024,-0.604435185,Li27Sb10
mp-1018028,-1.8020548,TiS
mp-776984,-2.964755289,HoInO3
mp-27804,-1.589798978,Rb3Cu2Cl7
mp-2878,-2.769409204,Li3PO4
mp-677467,-1.463464215,Rb5Te3H4NCl18
mp-13973,-3.353309769,Gd2SeO2
mp-677094,-2.582549331,MgTi3Nb2(PbO3)6
mp-974399,-0.683780914,HoNiGe2
mp-541071,-2.914138715,KZrP2HO8
mp-29250,-1.99788082,Li6VCl8
mp-555082,-2.51356642,CsLi5(BO3)2
mp-10130,-0.319222539,U2(Ni7B2)3
mp-22390,-2.210538914,SrRuO3
mp-642031,-0.263744682,Sr11Al4In3
mp-504708,-1.523863656,CsCoCl3
mp-776278,-2.143649251,Ti2N2O
mp-21469,-0.073736709,VCo2Sn
mp-616507,-1.520524157,Cs2Na2IrO4
mp-696735,-1.373729552,H2O
mp-22598,-2.017526985,In2O3
mp-505288,-2.776081979,CaAl2Si2(H2O5)2
mp-637982,-0.608253269,As5Pb3S10
mp-767681,-1.968628766,Li8Cr(FeO4)3
mp-12016,-1.44793158,Rb2SiS3
mp-13432,-0.37593704,Tb2AlCo2
mp-20325,-0.542836502,Ti3InC
mp-769070,-2.67421443,BaY4Cl14
mp-680463,-0.155824834,Rb4Pb9
mp-567276,-0.106582458,TaV2
mp-31885,-2.601030041,Li3Fe2P5O16
mp-775787,-2.462961825,Hf2N2O
mp-1006322,-0.491906694,Ce(FeB)4
mp-551873,-1.608837684,Ca4Bi2O
mp-17906,-4.268922691,PrF3
mp-1019104,-0.518250432,CaSnHg
mp-6062,-3.265746615,YAl3(BO3)4
mp-733929,-2.027523366,P2H4PbO8
mp-975994,0.229246758,NaLa3
mp-19102,-2.600840346,Sr2FeO4
mp-779210,-1.67376013,Li4Mn3Fe2Cu3O16
mp-10837,-3.207155124,Na2MgInF7
mp-849505,-2.40397962,MnFe2(PO4)3
mp-22678,-0.730155417,Ce2Sb
mp-759696,-2.484256761,Li2Bi3P9O28
mp-1020598,-3.293884651,Y4Si2S3O7
mp-763429,-1.510922294,LiFe(CoO3)2
mp-977056,-0.325369702,MgPt5
mp-21578,-1.44797811,KCu4(AsO4)3
mp-12244,-3.446230246,Cs3TiF7
mp-38077,-2.301113832,KCe5S8
mp-555604,-3.184649633,Na3Dy(Si2O5)3
mp-3397,-3.416309152,Ba2TiO4
mp-9059,-2.506708819,KLi6TaO6
mp-11442,-0.653783792,HoGaNi
mp-755127,-1.091983698,Ag2GeO4
mp-10123,-0.263287772,Ni21(B3Sb)2
mp-559482,-2.655030383,Ti2Bi2O7
mp-684017,-2.311924668,Y2Te4O11
mp-775830,-2.311005911,Na3Bi(BO3)2
mp-7101,-0.400823952,Ce(AlGe)2
mp-23544,-1.529031534,Bi4Br2O5
mp-12286,-3.52504071,Sr2Ta2O7
mp-3584,-3.473025751,NdPO4
mp-770621,-2.498739128,Li4Ti3V2Co3O16
mp-782,-0.336876433,Te2Pd
mp-2332,-0.267561025,Ho2C3
mp-758086,-2.511931443,LiSn(PO3)3
mp-756798,-1.667819371,Sr2CaI6
mp-23861,-1.818298042,BaHCl
mp-684120,-2.229545433,LiCuP2O7
mp-570379,-2.477435672,Cs2LiLuCl6
mp-764450,-2.328998304,MnOF
mp-758002,-2.573919604,Li3Sn(PO4)2
mp-505046,-2.647497195,Gd3Sb5O12
mp-759329,-2.452479761,LiBi3(P3O10)2
mp-23742,-2.189040079,CsB5(H2O3)4
mp-19305,-2.810572294,CaV2O5
mp-29129,-1.79605807,K2Te2O5
mp-971806,-0.424197626,TmFeGe2
mp-626218,-1.641263384,SbHO3
mp-973464,0.045230149,LaEr3
mp-7035,-2.910676495,CaMgAsO4F
mp-867372,-0.164393987,ThCdAg2
mp-29592,-1.100642004,RePCl9
mp-553921,-3.858347028,Pm2O3
mp-1009544,0.00127358,CsRbP
mp-699469,-0.910214375,AlH15N5Cl3
mp-5473,-0.43865898,CaMgSi
mp-20602,-0.218851283,U(FeGe)2
mp-989641,-0.609110567,LaOsN3
mp-554584,-1.557334871,Rb3NaPbO4
mp-1013733,-0.608451012,Ca3BiSb
mp-760059,-1.717522937,Bi5O7F
mp-753069,-1.983337571,LaBi5O9
mp-560872,-2.609190663,Mg10Ge3(H2O9)2
mp-690794,-0.747121785,Sr2HN
mp-21684,-0.528643762,Ce5Cu19P12
mp-5982,-0.843697936,La(NiAs)2
mp-772862,-1.712504717,BaSr2I6
mp-1017982,0.724663871,TlN
mp-35311,-2.656001589,ZnCrF6
mp-568901,-0.124307201,NbFe2
mp-18501,-0.789769312,Ba(AgTe)2
mp-570974,-1.817485662,BeCl2
mp-556860,-3.664100284,Y2Si2O7
mp-992141,-1.206224584,Cs2IBrCl6
mp-31383,-0.252532172,Hf6CoBi2
mp-19030,-3.262228808,La4V5(Si2O11)2
mp-1019797,-2.356602368,K5B(SO4)4
mp-29210,-0.300512353,Li2Ga
mp-754128,-3.662355387,Ba3Hf2O7
mp-29679,-0.642556686,Hg2PCl2
mp-767403,-0.964221676,Li5SbS
mp-651155,-0.121417532,TeI4
mp-558151,-1.791658031,Ag2PO3F
mp-14434,-1.322398636,K3GeS3
mp-569388,-0.287664223,Te2Ir
mp-16889,-0.854893442,Na6Sn2Se7
mp-864908,-0.764183754,MgTiIr2
mp-3942,-0.897227416,TmSnPd2
mp-560311,-2.960167476,Na3FeF6
mp-570512,-1.520951016,LiWCl6
mp-698033,-2.325657058,KAl2P2H8O12F
mp-759224,-2.760567505,Li5CuF8
mp-676282,-1.114223115,Mg(Mo3S4)2
mp-19343,-2.380378944,Co4B6O13
mp-28917,-3.276149976,Ba2Ti13O22
mp-23416,-1.862479293,Li2ZnCl4
mp-31603,-2.460424008,LiCo(PO3)4
mp-569613,-0.873737523,Ba2P7Cl
mp-16543,-1.09299657,Cs3Cu5O4
mp-699232,-2.484311203,Mg7P2(HO2)8
mp-570759,-0.744741071,Tb4Bi3
mp-19866,-1.278965407,UTeS
mp-865261,-0.369914302,Lu2ZnOs
mp-560246,-2.148800597,LiUP(H4O5)2
mp-672688,-2.033980288,YbSeClO3
mp-557773,-2.947276934,Sc2TeO6
mp-755447,-2.082375484,Li3Cu3(PO4)2
mp-776091,-3.053871733,LiLaNdSbO6
mp-638104,-0.486579739,Nb2Tl4Se11
mp-27123,-3.01557064,ErSeF
mp-11252,-0.108261673,MnAu2
mp-30931,-0.953077619,Na4SiSe4
mp-643412,-1.506821512,MnH2SeO5
mp-23350,-1.612403853,Rb2PtCl6
mp-573340,-0.743940545,Nb2Se17Cl12
mp-779012,-3.885803364,Tm3TaO7
mp-19317,-2.369744262,Yb(FeO2)2
mp-975207,-2.211962752,RbSmO3
mp-631471,0.881496815,YScBe
mp-975893,-0.714441909,PrMgAu2
mp-10167,-1.084959575,Na3SbS4
mp-995181,0.489061715,SnGe
mp-20599,-0.21801154,PdPb2
mp-1020163,-2.841590072,Na3Li2Al(SiO4)2
mp-607077,-0.416840441,Ce(Al4Fe)2
mp-8843,-0.756829012,SrSiPd
mp-9570,-0.568601992,Ca(CdP)2
mp-24083,-0.53256403,Th2AlH4
mp-504426,-1.329903938,LiH5S(NO2)2
mp-561138,-2.930648318,RbGd(PO3)4
mp-636698,0.276016355,YHf2Pb
mp-19085,-2.758526707,Ba2MnWO6
mp-561305,-2.958264439,BaZnSiO4
mp-763324,-2.296113705,Li2Mn2P4H3O16
mp-607291,-0.488195717,Cu3BiS3
mp-24538,-1.641992283,K2H12Ru(SO7)2
mp-24120,-1.858921477,CaAsH5O6
mp-24534,-1.756511758,CaH4SeO6
mp-1018727,-2.101470488,HoS2
mp-541431,-2.862743325,Ca2SiH2O5
mp-771986,-1.810718802,Li4Fe3O8
mp-19929,-0.190657451,MgInNi2
mp-2754,-0.186420107,Hf2Fe
mp-570934,-1.140791244,NdPt
mp-1441,-0.974917355,CsO2
mp-764375,-3.144794754,Li2VF6
mp-519,-0.152522193,USb
mp-866155,-0.766890627,TiAlRu2
mp-21604,-2.094573885,Sm3InS6
mp-570966,-1.48971827,ZrP2NCl11
mp-11811,-0.711915925,CaGaAu
mp-542718,-0.532743319,Er2Ni12As7
mp-15634,-3.312122505,Cs2NaTiF6
mp-28802,-3.534285463,Sr4Zn3F14
mp-3557,-0.43276132,Eu(CuGe)2
mp-37693,-2.474447104,Nd2EuS4
mp-867708,-3.201672058,LiLaNb2O7
mp-707469,-1.051749982,P5H5N6(Cl4O)2
mp-28145,-1.551127367,Rb2PdCl6
mp-697027,-2.437425934,NaSi2(HO2)3
mp-776331,-2.224040964,Zr5N5O2
mp-21870,-0.79062642,Pr2InPd2
mp-24355,-0.690380984,KBe(H2N)3
mp-9024,-0.77744507,LuSiAu
mp-17230,-0.237422379,Nb5GaSn2
mp-695172,-3.328410735,CsMg12Al25Si29O108
mp-979923,0.345511432,SmMn3
mp-10894,-0.69031308,MnAlRh2
mp-3160,-3.621340507,Pr2Si2O7
mp-973060,0.57181483,MgCr
mp-13570,-0.508308525,Mg(ScGa)2
mp-766789,-2.749995402,MnF3
mp-774524,-3.481767262,Li3La5Ti6Nb2O26
mp-974023,0.180149176,In3Cu
mp-690493,-2.029545271,LiMoO2
mp-772534,-2.693405915,LaSCl
mp-9819,-2.772293884,RbAsF6
mp-29012,-0.522643478,Tl2AgI3
mp-771697,-2.782348691,La2Ga4O9
mp-3376,-2.7934877,Sr2SnO4
mp-28129,-1.215852774,Ba(SbS2)2
mp-754844,-1.550867053,Na2IrO3
mp-651332,-0.152983307,SeBr4
mp-775960,-2.253665603,Li4V5Sb3O16
mp-1008556,-1.114744011,AlGaN2
mp-776663,-2.531600879,Li4Ti2V3Fe3O16
mp-966800,-0.203910498,InP
mp-8871,-2.240967946,CsNa2BO3
mp-650277,-0.603289857,Pr6Si4Ni7
mp-540330,-2.665984542,Li2V(PO3)5
mp-540736,-2.74142958,BaCd(PO3)4
mp-615682,-2.798993073,Ba2LaTa(CuO4)2
mp-772427,-2.596611962,Li3Fe(PO4)2
mp-505743,-2.319504273,GaBPbO4
mp-555235,-3.285974955,SiO2
mp-13220,-0.157273166,PrMg2Cu9
mp-18844,-2.458820274,CaMn2O4
mp-684,-1.860174196,BaS2
mp-505512,-0.769396008,Ce2Sc3Si4
mp-581754,-0.892991417,Eu(PPd)2
mp-1008557,-1.1488433,AlBN2
mp-676083,-1.589173353,Ce2USe4
mp-781593,-1.617875531,Li4Co5Te3O16
mp-776083,-3.016137845,HfSnO3
mp-757464,-2.61426719,LiNb(PO3)4
mp-19050,-2.759837674,Ca2MnO4
mp-1586,-1.188397994,NdSb
mp-30308,-1.747039365,TlAuF6
mp-772958,-3.181186371,Er2P4O13
mp-756545,-3.882310192,Er2Zr2O7
mp-972828,-0.033883184,Cu3Si
mp-573697,-2.245330995,CsCl
mp-541912,-1.734669449,ZrBrN
mp-779704,-1.752287814,Si(HgO2)2
mp-625230,-1.513922883,Zn(HO)2
mp-707302,-3.077656714,Rb10Al24Cd7(SiO4)24
mp-776024,-3.666115172,CaZrO3
mp-28241,-0.815686189,ZrI2
mp-505397,-2.221815036,K2PuCl6
mp-981563,0.071950396,YbPm3
mp-23966,-1.748876717,MgH2SeO5
mp-780324,-1.362092397,Co2O3F
mp-554098,-0.919711093,Ti6O
mp-572546,-1.728277928,CsRe(Cl2O)2
mp-1311,-0.983882196,Cr5S6
mp-30983,-2.809147685,CaP4O11
mp-5295,-3.575088891,LaNbO4
mp-10637,-0.812975185,ThSb
mp-977129,-0.112062315,HgPd3
mp-778229,-2.216450557,Li9Cr3(WO4)7
mp-12764,-0.148107433,SmC2
mp-569535,-0.755648108,Ca2Bi
mp-556776,-3.013275439,Sr(PO3)2
mp-977395,-0.461799716,YbFeB4
mp-867976,-3.899757043,Sm27Y5O48
mp-777392,-2.090891176,Li4V3Ni2Sn3O16
mp-757722,-2.442805282,BaZnGeO4
mp-30466,-0.772574698,YbBiPd
mp-542022,-0.756942176,Sc2MnB2Rh5
mp-22192,-0.637496204,Si3Ru2
mp-569996,-0.716605239,Tb2InGe2
mp-762265,-2.470078828,Li3V5O10
mp-8863,-1.029764028,Ba3MoN4
mp-740732,-1.575555949,UP3H10BrO8
mp-861501,-0.146504549,AgHgPd2
mp-29937,-3.390951469,Ho5(ReO6)2
mp-35320,-1.046354015,Ag3(AsO4)2
mp-568607,-0.23786673,Al5Mo
mp-560336,-3.276619912,SiO2
mp-770868,-2.289727956,VWO4
mp-585269,-2.648248983,Li5Mo2P5O18
mp-631478,0.988369603,IrPbBr
mp-677246,-3.295994054,Ba6Ti2Nb10Si8O51
mp-510281,-1.452084664,FeCuO2
mp-11667,-0.415821775,Nd2(Zn2Ge)3
mp-8591,-1.099936786,USe2
mp-30005,-1.596405632,Rb6Br4O
mp-30290,-0.701144532,Nd2Sn3
mp-554952,-1.600932209,Te2Pb3(ClO3)2
mp-773503,-2.213946239,V2CrO7
mp-24664,-0.927691913,ZnH8C2N4(ClO)2
mp-19294,-2.590738704,LiFeP2O7
mp-675011,-3.134418322,CsPF6
mp-8389,-1.275288571,Na6ZnS4
mp-32798,-2.039469873,La2Se3
mp-10063,-0.041226091,CdSnSb2
mp-559594,-1.994807125,LaGaSe2O
mp-28757,-1.345096778,Nd(AlBr4)3
mp-582360,-0.417118912,TaPd3
mp-774032,-2.262589328,LiCr2O4
mp-1008826,0.786796167,OsN2
mp-764385,-1.740736651,Li4Fe3Cu3(SbO8)2
mp-1482,-0.518839989,Zr2Al3
mp-26884,-3.034902393,LiTi2(PO4)3
mp-5299,-2.980711401,La2RuO5
mp-570008,-0.942077961,Sr3BiN
mp-23380,-0.65431571,Tl3PbI5
mp-777682,-2.658322776,Li2NbV3O8
mp-761556,-1.412959916,MnCoO4
mp-1018095,-0.527852138,BaGaGeH
mp-864883,-0.680711946,MgSnPd2
mp-18917,-1.797186313,Na7Fe3O8
mp-568832,-1.038002593,Y(PRu)2
mp-28062,-2.700983741,Sb2F7
mp-778808,-2.996777334,Li6La3Nb2O12
mp-541026,-3.255838014,CaMg3Si3O10
mp-30563,-0.473178183,ZrCoSn
mp-19193,-2.182364517,CaFe3O5
mp-504776,-0.830515583,Ce6P17Pd6
mp-13859,-3.352758869,K3SiF7
mp-16622,-0.520826632,NdAl7Au3
mp-757031,-3.299821907,Mg2TiO4
mp-558796,-0.663736951,Ag(Bi2S3)3
mp-769608,-2.421007153,Li4VCr3O8
mp-22469,-0.060767371,InNi3
mp-11169,-0.833810557,Ba(PIr)2
mp-510594,-0.706421018,Ho5CoSb2
mp-974511,-1.118994321,ReSbO3
mp-567808,-0.45777363,Tm(CuGe)2
mp-561486,-2.981434077,Na2Mg5(PO4)4
mp-649472,-2.215982842,KCuPO4
mp-19473,-2.421577909,CaNi3(P2O7)2
mp-770832,-2.136642234,Li2BSeO4
mp-31010,-0.886624734,Ca2As3
mp-27493,-2.316371589,Sn3(PO4)2
mp-601257,-1.009969812,DyCuPbSe3
mp-504350,-2.388456535,Sb(PO3)4
mp-22120,-0.495015922,YRh3C
mp-961725,-0.013700752,CrGeRh
mp-10054,-1.081053463,ZrAs
mp-866028,-0.787176652,Dy2Ge5Rh3
mp-5385,-0.870547291,TbSnPd2
mp-998759,-2.317241512,TlCdF3
mp-6227,-3.175325372,Ca2ZnSi2O7
mp-778801,-3.032829111,Li2MnF4
mp-17623,-0.298080556,SmCo9Si2
mp-754736,-1.700568468,BaSr3I8
mp-568443,-1.852676128,Al2VCl8
mp-773103,-3.441833859,ErTa7O19
mp-626210,-1.439066171,Sr(H8O5)2
mp-776273,-2.288540553,Zr2N2O
mp-20318,-0.396846987,Mn2B
mp-755115,-1.736608662,CuReO4
mp-7542,0.026572183,GeP3
mp-16871,-2.623884741,K2ZrGe2O7
mp-18992,-2.497620279,Ba2MnTeO6
mp-777462,-1.899224901,Li4Ni3Sn3(SbO8)2
mp-12563,-0.576455103,ErGeAu
mp-757149,-3.957624309,Sr2Hf7O16
mp-3275,-0.63822073,PrFeSi2
mp-21628,-0.220456287,Mn6Ni16As7
mp-542802,-1.439804481,YCuPbS3
mp-28965,-2.032982605,AgBi2F12
mp-29383,-0.324138237,KGaSb2
mp-28476,-1.014078586,SrBiSe3
mp-26114,-2.766993356,Ti(PO3)4
mp-19396,-1.802283428,Na4Fe2O5
mp-781788,-2.948944747,K2LiNb6(PO8)3
mp-573581,-0.623017007,Na2TeSe3
mp-530709,-0.569451368,TlW3Br7
mp-23076,-1.727649357,Rb2CoCl4
mp-862890,-0.353361149,AcAg2Sn
mp-22356,-0.831360433,In2HgS4
mp-683897,-0.58314461,Pr3Sn13Rh4
mp-559610,-2.940841382,Rb2NaAl2(PO4)3
mp-19819,-0.482821567,GdIn
mp-557792,-1.840105783,HfSCl6O
mp-29741,-0.071390241,Tl2(CdSb)3
mp-570183,-0.865261129,Pr(AsPd)2
mp-768426,-1.583131592,Ba2YI7
mp-3564,-3.708269765,BaSc2O4
mp-29341,-0.868014169,K4Au6S5
mp-23231,-0.336077168,AgBr
mp-722344,-2.520768883,KCa4B22H18ClO46
mp-585177,-2.564380639,Li3Mo2P5O18
mp-583645,-0.608800914,BaCaSn3
mp-23278,-2.16628256,NpCl3
mp-754149,-4.122892938,GdOF
mp-675882,-3.711136154,Dy2TiO5
mp-4043,-0.515372633,NbCu3Se4
mp-3709,-0.61334546,Tb(CoGe)2
mp-505570,-0.470138746,PaH3
mp-4508,-0.815686943,ErInPd
mp-866205,-0.87059715,TmSbPd2
mp-23856,-1.840382219,LiHO
mp-774348,-2.449672572,Li3MnFe2(BO3)3
mp-30499,-0.137302058,Th6Cd7
mp-757089,-1.115607097,LiIO4
mp-976707,-0.771304024,H4CN2O
mp-28771,-0.717909066,Sr2FeN2
mp-944271,-2.131418953,K2Fe2(SO4)3
mp-540925,-2.050975382,Hg2AsF6
mp-1018677,-0.853030325,DyScSb
mp-600007,-3.276012959,SiO2
mp-753345,-1.685962684,Ba2CaI6
mp-773166,-1.355517787,Li5Cu3(NiO5)2
mp-850895,-2.978829091,Li2VOF3
mp-570956,-0.568005561,NdCoSb3
mp-1874,-1.451466969,NbS2
mp-849570,-2.415902636,Li2V3SbO8
mp-556697,-2.870492542,CaTa2Bi2O9
mp-974882,1.238903315,Rb3Mo
mp-21436,-0.598545495,GdCuSn
mp-32861,-0.38222414,Rh3Se8
mp-569032,-0.418766037,PrAu6
mp-14088,-2.408970641,Rb2PdF6
mp-11809,-0.425088272,TiAl2
mp-1019551,-2.974348269,BaNa2Mg(PO4)2
mp-761694,-2.488796173,LiSn3Sb(PO4)6
mp-16052,-0.328425206,Ba(Cu2As)2
mp-961727,0.026528722,TaGeRh
mp-679969,-0.640110226,PCN2Cl3
mp-976080,0.985630768,Ge3B
mp-775278,-2.442676312,Li2MnV3O8
mp-761891,-3.075646284,Li3Ti4O8
mp-4248,-0.334240974,YCoC2
mp-772548,-2.395804047,SmCuO3
mp-13900,-1.674728333,Sr(CuO)2
mp-29185,-1.884870117,Te2O3F2
mp-27650,-0.25836488,RbB10H9
mp-814,-1.744079079,DySe
mp-745158,-0.987343617,NiH10C2(N2O3)2
mp-12459,-0.5161183,Ag3PS4
mp-775270,-2.273974865,MnCo(PO4)2
mp-771571,-1.762361463,Li(FeO2)2
mp-554650,-1.362253688,LaH6(ClO3)3
mp-757909,-2.242149762,KP(HO2)2
mp-1019788,-3.051334139,K4Al3(SiO4)3
mp-11212,-1.271320048,LaAsPd
mp-11508,-0.329909811,MoP4
mp-756515,-2.019972483,Li4Nb(TeO4)3
mp-626259,-1.105401577,H3NO4
mp-2514,-0.665696639,Mg3P2
mp-605374,-2.270186319,CsU2H3(C2O7)2
mp-561050,-3.36786255,BaCaSiO4
mp-555759,-1.452721751,Re2(HgO2)5
mp-9566,-0.753016356,Sr(MgSb)2
mp-550469,-2.19963819,TiZn(BiO3)2
mp-722896,-2.960760988,Mg7Si4(HO8)2
mp-30236,-0.247673493,TlAsSe2
mp-767140,-2.353681085,Sn2P2O7
mp-760401,-3.045437624,Nb3O7F
mp-8084,-2.990461512,NaNb6O15F
mp-780050,-2.464743985,Hf2N2O
mp-20315,-0.66659556,Ti2InC
mp-983388,-0.061122096,K3Hg
mp-1019719,-3.088286635,CsSi2BO6
mp-763017,-1.84584616,Fe2O3F
mp-19078,-2.978320116,Ba2SrWO6
mp-705334,-2.660000967,Li2V(PO3)5
mp-643060,-1.194650754,ZnH4(BrO)2
mp-31972,-2.609890424,Li3Mn(PO4)2
mp-768247,-0.633259608,PtO3
mp-23743,-1.565658282,AlH12(ClO2)3
mp-706328,-3.10319638,Ba3DyUFeO9
mp-758587,-2.314159595,Li2CuPO4
mp-6939,-0.616737742,Sr(BIr)2
mp-9305,-0.179897134,Mn4As3
mp-29742,-1.017239418,NdSi2Rh3
mp-22119,-1.146909534,U(PdS2)2
mp-863697,-0.357415042,LiPm2Si
mp-12978,-2.111304217,SnO2
mp-556661,-3.312489275,Y2SiCO7
mp-542557,-2.188070097,CsScAs2(HO4)2
mp-618324,-0.565194516,ZrCo3B2
mp-556738,-4.148444063,BaZrF6
mp-755681,-2.015255203,Te2P4H3O16
mp-540665,-0.062692899,Cu7As6Se13
mp-28111,-1.357861555,K3NO3
mp-752596,-3.27355643,YbSmO3
mp-752452,-2.040680119,Mg3Te4O11
mp-13494,0.037348395,Nd3Fe29
mp-27457,-3.001345239,Ba(PO3)2
mp-559330,-3.065528496,Sr4B14O25
mp-4785,-0.813714122,CeAl3Pd2
mp-8959,-2.544841436,CsK2PdF5
mp-754567,-1.323578234,NaCdO2
mp-607818,-0.497292227,GeTeRh
mp-695056,-3.04167167,Na6CaZr(SiO3)6
mp-645719,-0.612279426,Ca4In3Au10
mp-560642,-2.487837345,Na3SbP2O9
mp-757450,-2.976100497,Sc2Ge2O7
mp-13819,-2.136088991,KAgF3
mp-20340,-1.001846631,EuN
mp-7492,-3.535746015,LaBO3
mp-980941,0.266921349,Ti3N
mp-753226,-2.559226107,SmAgO2
mp-556623,-3.437717306,K2TiOF4
mp-561518,-2.330841653,Mg2BiAsO6
mp-675132,-0.327210529,K6InP3
mp-317,-0.470919734,SnRh
mp-36800,-1.283838712,MgTaN2
mp-18673,-2.512406322,CsZnPO4
mp-540447,-2.446153831,LiNi(PO3)3
mp-757569,-2.486471702,LiSn(PO3)4
mp-779833,-2.543161226,Hf2N2O
mp-20672,-1.156723702,Hf3P2
mp-11018,-0.955204299,TlCd(NO2)3
mp-510567,-1.778583834,Ce3CuSnS7
mp-779361,-2.934781949,Li24Ti11CrO36
mp-31112,-3.602167498,Tb3GaO6
mp-9063,-0.911019579,RbSe
mp-13475,-0.922809692,CeSi2Ir3
mp-777470,-2.848608036,LiFeF3
mp-600016,-3.27827305,SiO2
mp-723059,-1.511029373,Li3Nd2H6(N3O10)3
mp-772563,-2.755139808,Li2VO2F3
mp-13854,-0.337115101,B3Ru2
mp-569639,-1.312381372,TlCl
mp-571000,-0.445404606,Th(GeOs)2
mp-558538,-2.838971566,HoSeO3F
mp-775281,-2.469224685,Li2MnFe(BO3)2
mp-631538,0.866277763,NiBiB
mp-7548,-1.037488766,BaSe3
mp-649033,-0.802947995,Sr5(InSb3)2
mp-850954,-1.936068899,Li21(CoO4)4
mp-972822,-1.009887026,SiBO3
mp-608653,-0.679373366,As2Pb2S5
mp-761219,-1.97789323,Na8TiO6
mp-1008920,0.136692238,Mn2Ge
mp-743645,-2.275722269,KMgIn(MoO4)3
mp-850399,-2.440096004,LiVPHO5
mp-768947,-2.246898151,Li10Zn3(GeO4)4
mp-850936,-1.971404082,Ni6OF11
mp-766486,-0.85295347,LiCuS2
mp-776018,-3.534311163,SrTiO3
mp-8914,-0.543914474,SrGaSn
mp-976291,-0.233317547,LiAlH4
mp-16753,-0.333898503,LuCuPb
mp-22382,-0.372984274,TbInAg2
mp-505333,-0.868593944,Hf5CoAs3
mp-780060,-2.547845748,Hf2N2O
mp-1745,-3.851040524,Sm2O3
mp-3074,-1.048339768,KAgO
mp-571486,-0.127753096,CuSe
mp-27990,-0.15979322,B2H5
mp-983551,-0.295131812,CePmTl2
mp-23303,-1.69234337,RbBr
mp-582968,-0.982144857,Bi6Cl7
mp-1640,-0.30314501,Ho2C
mp-11964,-0.946244181,Ce2CdPt2
mp-559019,-2.103901968,Nd6S4BrN3
mp-978512,-0.076958663,SmTmMg2
mp-9159,-2.79070822,Li4NpO5
mp-560341,-2.37886869,EuSi2(NO)2
mp-850536,-2.353413703,BaGa12O19
mp-850393,-1.860274346,Fe3(O2F)2
mp-756830,-2.571879231,MgCu2(SiO3)4
mp-631554,0.577135796,Na2TiAu
mp-849501,-2.547974884,Li3V3P8O29
mp-755293,-1.68353476,Sr4Sb2O
mp-559281,-1.04056047,Na3Cr2(PS4)3
mp-753031,-1.968558579,LiCu5F12
mp-3390,-0.595424078,Y(CuSi)2
mp-850062,-1.370548462,LiNiO2
mp-685613,-0.69892738,Ba2PPd2
mp-771147,-3.191347572,Dy2P4O13
mp-772809,-2.29550206,KSnPCO7
mp-704915,-2.634020841,Na2Ni2(B4O7)3
mp-557862,-1.135002916,BaAg2(HgO2)2
mp-772910,-1.498746544,Bi3IO4
mp-770959,-2.844829751,Ba3GeO5
mp-19033,-2.1868763,WO3
mp-768522,-3.83570683,La2Ce2O7
mp-780218,-2.04260325,Na5LaO4
mp-780625,-3.492595151,Tb5O9
mp-776335,-2.350526397,Zr2N2O
mp-776046,-2.511876178,TiFe3Sb2(PO4)6
mp-5528,-0.56805488,Ni3(SnS)2
mp-24460,-1.901635989,MgH6(SO4)4
mp-851030,-2.324735535,Li2FePHO5
mp-555166,-1.096766658,BaAg2SnS4
mp-773741,-2.322684221,Fe4O3F5
mp-1388,-0.755332293,DyRh2
mp-30821,-0.711394362,LiAl2Rh
mp-20362,-0.217460242,Mn3NiN