id,formation_energy_per_atom,pretty_formula
mp-20030,-0.114408917,U2InCo2
mp-985471,-0.206992844,Ce2ZnHg
mp-10784,-1.715653491,RbErSe2
mp-4973,-3.291428323,CeSF
mp-849671,-2.30523309,Li5Co2(SiO5)2
mp-11228,-0.417594527,YAl
mp-626864,-2.59608065,U(HO2)2
mp-505622,-0.24619143,Mn4N
mp-998429,-1.754070673,NiAgF3
mp-632759,-1.538354496,CuH4(OF)2
mp-755783,-2.900387869,Li2Ti(BO3)2
mp-770871,-2.163584447,Li6Cr2O7
mp-769868,-1.599397443,Li3BiH8O7
mp-15650,-0.272853561,AsRu
mp-778111,-2.305596194,Li3Bi3P8O29
mp-916,-1.108238065,DyPt2
mp-558628,-2.475622476,KLi2BO3
mp-764460,-1.823060063,Na5Fe11O16
mp-35005,-2.149001625,Na3(WO3)4
mp-559092,-4.317586783,ScF3
mp-26224,-2.360331142,Li3Cu(PO4)2
mp-771165,-3.861828116,Dy2TiO5
mp-17965,-0.69895116,KGaTe2
mp-19820,-0.213064268,TmPb3
mp-567172,-2.192765792,Cs2NaYbCl6
mp-17812,-3.234889894,Sm2SiTeO4
mp-626308,-1.445835465,Ca(H8O5)2
mp-971724,-2.148248867,Ti2Si2O5
mp-30696,0.022956383,Cd5Cu2
mp-23356,-2.103955104,Bi4B2O9
mp-558073,-2.186062564,Sb2SeI2F11
mp-36465,-2.910136455,Al2FeO4
mp-540839,-1.04306493,CsPbI3
mp-9244,-0.376302895,LiBC
mp-10454,-0.641763238,SmTiGe
mp-764245,-2.597041695,Mg7Mn5O12
mp-1014296,0.356809642,C3N
mp-772568,-1.676174771,Li2Cr4O13
mp-11233,-0.469182075,ZrAl
mp-220,-0.432984073,ThNi2
mp-676311,-3.632008161,Nd2Zr2O7
mp-686458,-2.834788716,Rb11Al14Si10(AgO16)3
mp-769152,-1.024904794,Sc(ClO4)3
mp-2067,-0.63959199,ThGa2
mp-541629,-3.540380837,BaGaF5
mp-2369,-0.53428665,SnPd
mp-2082,-0.395615634,PIr2
mp-772055,-2.821415542,Li6Ti2O7
mp-28679,-1.124015996,NaGaBr4
mp-780860,-2.418451442,Li2Co2OF6
mp-675912,-2.264916063,Yb2SmS4
mp-943466,-2.230852689,Li2CoPHO5
mp-571046,-0.808099393,Sr5(GeN3)2
mp-686583,-3.153673682,Na5Zr4Si3(PO8)3
mp-567932,-0.133671146,LaMg4Cu
mp-631560,1.064229321,SrMnRe2
mp-14213,-0.960827209,Sr4GeP4
mp-27830,-1.551490836,Cs2SeCl6
mp-559446,-0.945452173,NaPPdS4
mp-977062,0.10148397,Na3Ca
mp-30151,-0.079854729,CuAuSe4
mp-767039,-2.005708612,Sn8P2O13
mp-974627,0.023231381,K3Tl
mp-9027,-1.696696303,TiS2
mp-931,-1.556166081,ThP
mp-985562,-0.48076736,Nd11In9Ni4
mp-722271,-1.042641687,H14RuS2(N2O3)2
mp-20533,-0.666246082,SrIn2Pt
mp-11445,-0.540169912,Y(TiGa2)2
mp-759450,-1.796571599,Sb5O7F
mp-569689,-1.422587168,Eu2PI
mp-757280,-2.085532407,Ba2As6O11
mp-973875,0.089276146,Ga3Ge
mp-767240,-1.338529186,CsPH4(NO)2
mp-16183,-0.230871613,Tl2B2Se7
mp-767605,-3.184567311,Li2VF5
mp-680443,-0.164169742,K4Pb9
mp-22909,-1.538337414,ZnCl2
mp-654199,-0.650591729,Ta8NiSe8
mp-510452,-2.594298786,CeHSO5
mp-722979,-0.530479605,K2Zn(H2N)4
mp-11322,-0.934096943,ZrSi
mp-779316,-2.806719903,VOF
mp-771123,-2.895912295,ScFeO3
mp-762852,-1.909976805,Na2P2H12O11F2
mp-631522,0.748390598,LaOs2Rh
mp-30457,-0.633776532,LuNiBi
mp-4051,-3.140126661,AlPO4
mp-1008600,-0.129296202,ZrN2
mp-705312,-2.539429851,LiFePO4
mp-549970,-2.552271154,Ba2ZnReO6
mp-774762,-0.889806916,Li2Cu2S3
mp-755881,-3.211933855,Ba2Ti6N2O11
mp-568823,-0.688661678,YbAu3
mp-20756,-0.618790578,LaTiGe
mp-504937,-0.543100038,SbSe9Cl7
mp-752535,-2.356805692,TaIn3O7
mp-578953,-3.227355482,YbZr6(PO4)9
mp-19408,-2.444803235,LiV2O5
mp-866807,-1.981521183,TiZnH12(OF)6
mp-975405,-0.524620471,RbAuO3
mp-676002,-4.237141434,Ba2PrF7
mp-10598,-0.026385725,CuSn
mp-780336,-2.579942387,Li3Cr3(PO4)4
mp-29617,-0.148228459,V3Sb2
mp-17173,-0.868798285,Rh2S3
mp-703312,-1.990522715,RbPH4O5
mp-570138,-0.635659651,Tb2Al4NiGe2
mp-2604,-0.575648905,MgTe2
mp-28549,-2.448945791,Li8SiO6
mp-755911,-2.443069271,Hf2N2O
mp-32645,-2.45401085,Sm2S3
mp-776268,-1.283296887,Li5SbS4
mp-626791,-2.116824283,VHO2
mp-504962,-1.66571151,K2Na3InO4
mp-24659,-0.368771326,UH3
mp-778512,-2.825907975,LiFeF4
mp-16569,-0.228749206,Al17(Re2Si)2
mp-23146,-1.86589769,TlZnSClO4
mp-998732,-1.304590379,TlInCl3
mp-5186,-0.629383544,ScNiSn
mp-651707,-3.281457108,SiO2
mp-21525,-0.206267451,RbPb
mp-567415,-0.516091144,Nd2B5
mp-20999,-0.961387522,La3InN
mp-18219,-3.367276443,Dy2SiSeO4
mp-769605,-2.421980174,Li4VCr3O8
mp-26301,-2.304939582,LiBi2(PO4)3
mp-505789,-0.867712889,Ce2Ni7P4
mp-6255,-3.617536693,Ca3Sc2(SiO4)3
mp-8768,-0.731701763,K2CoSe2
mp-504630,-0.862303381,InTeCl
mp-698056,-1.915894448,Na2CdH4(SO5)2
mp-21660,-0.510030715,HfGa2Co
mp-776146,-2.400131874,Li2V3FeO8
mp-781601,-1.96471218,Mn8O13F3
mp-559498,-1.701246341,K9Bi5O13
mp-8993,-3.003595358,Sm2S2O
mp-2923,-2.26057195,Ca2Os2O7
mp-6485,-1.450299723,La3SiAgSe7
mp-12233,-2.705414644,ZnB4O7
mp-570562,-0.385599712,Te3Pt2
mp-849475,-2.451944466,VO2F
mp-676555,0.008324262,Ag8GeTe6
mp-569491,-0.945695625,NaLa(GaSe2)4
mp-29582,-1.773316277,Li2CrCl4
mp-561196,-1.139886732,ZnS
mp-26304,-1.884367522,Cu9(PO4)8
mp-542826,-1.363417873,Sc2PbSe4
mp-542208,-2.354249828,Ba3NaOs2O9
mp-559643,-1.07781165,Rb2Mn(PS3)2
mp-771304,-2.347716702,Li3SiSbCO7
mp-542220,-0.231446461,Cs3As
mp-755650,-3.84255333,Gd3YO6
mp-1018125,-0.31570328,Ti2Re
mp-676248,-0.077967569,GaCuTe2
mp-555109,-3.605464073,TmNbO4
mp-567540,0.020046115,Ga
mp-558967,-1.310057593,K3Ta2S11
mp-974970,0.711566382,Rb3Mn
mp-764620,-2.328528613,LiFe4(BO3)4
mp-1042,-0.820673134,HfSi
mp-30727,-0.171946257,MgCdAg2
mp-861944,-3.124164163,KNaPrTaO5
mp-30465,-0.741759739,YBiPd2
mp-979073,-0.036217529,TmMg2Sc
mp-11190,-0.485562943,VSi2
mp-24436,-2.162304513,Ca5As4(HO2)10
mp-600050,-3.224777187,SiO2
mp-722278,-2.709154736,BaSiP4(HO7)2
mp-2691,-0.627389597,CdSe
mp-763740,-2.588337063,LiFeSiO4
mp-1019537,-2.084342067,BaAlSi4N5O3
mp-758997,-1.651004369,LiCuCO3
mp-1013878,-2.68667321,LiV3P3O13
mp-771256,-2.72082194,Sr3(AsO4)2
mp-554782,-1.164788798,Li2Ga2GeS6
mp-1718,-0.283762377,ZrFe2
mp-6638,-0.604719529,Nd2Fe2Si2C
mp-541214,-1.94679311,KS2O3
mp-7858,-3.481686632,MgUO4
mp-769229,-2.556647667,Ho2Bi2O7
mp-30893,-0.877680375,Sr4Bi3
mp-866110,-0.216375521,Ho2OsRu
mp-567207,-0.271706409,SrIn4
mp-769464,-3.223634077,LiLa3MnO7
mp-27761,-3.584579128,Li3ThF7
mp-758337,-2.87883092,Ca2P6O17
mp-24662,-0.306711808,Rb4Mg3H10
mp-867839,-3.215451722,Ta7BiO19
mp-11453,-0.884409979,HfPd3
mp-27425,-2.186076938,Sr(HO)2
mp-706670,-1.561074263,AlCuH28S2ClO22
mp-553278,-3.01922746,Nd4Se3O4
mp-774258,-2.911888203,Ti5Nb(PO4)6
mp-560875,-2.191081913,K2Ge4O9
mp-23326,-2.890045765,Ca4Cl6O
mp-768812,-2.434615568,LiBiB2O5
mp-865164,-0.102771796,HfCdCu2
mp-774355,-2.436776288,Li3Co2(SiO4)2
mp-31488,-2.733093001,Li3NbO4
mp-30852,-0.45052803,TiPt8
mp-767521,-2.331076315,Na2InPCO7
mp-976155,-0.968611074,HoLuRh2
mp-557232,-2.3182473,KSmPdO3
mp-9856,-1.382857495,Cs2ZrSe3
mp-8743,-0.782149329,HoCoSi2
mp-762279,-3.394800586,K2Ti8O17
mp-775287,-2.678402197,Fe10OF19
mp-29194,-0.676000685,Cs2Au2Se3
mp-862601,-0.107206152,RhI2
mp-779059,-2.810978254,LiV4O5F7
mp-555704,-2.42338095,ReO2F3
mp-5416,-1.811034609,Na2SeO3
mp-776006,-2.436081286,VCo(PO4)2
mp-2226,-0.90102092,DyPd
mp-759874,-2.289399265,LiCu(PO3)2
mp-7594,-3.022823274,CsLiF2
mp-6013,-0.738497109,KTa(CuSe2)2
mp-675554,-1.050411675,Nd(SmSb)3
mp-604964,-1.08006334,PH9C(NO)4
mp-707095,-2.653589687,YHSO5
mp-754761,-3.617994087,Sr2HfO4
mp-974565,0.464825954,ReP3
mp-29550,-2.684558811,Ba2EuCl7
mp-554206,-2.522445419,Cs2Al2As2O7
mp-3595,-0.198575675,ZnSiAs2
mp-545659,-2.844751041,Ba2DyBiO6
mp-569532,-0.570617632,TiCu2P
mp-864676,-0.562854259,Yb2AlGe3
mp-1483,-0.791658437,SiRh
mp-27947,-0.172930951,Sn(SbTe2)2
mp-755353,-3.207550251,Sr2Ti6N2O11
mp-680690,-1.584966345,LaCu3(RuO3)4
mp-554328,-1.855335997,NaSO4
mp-27292,-2.158586078,Hg3As2F12
mp-541852,-0.186751354,Co21(ReB3)2
mp-693682,-3.115318615,Na25Zr11Sc5Si12(PO8)12
mp-570423,-1.652947078,Ba6Pr3I19
mp-619775,-1.347228642,Y7C2I12N
mp-540881,-1.140666722,Cs2AgI3
mp-571458,-0.777347667,RbGeI3
mp-1017447,-1.194209942,HgGeO3
mp-676591,-2.859752207,Li11Nb12O36
mp-686042,-2.13953237,Zn4B2O7
mp-559366,-1.234954256,PBrNF
mp-21656,-0.555429559,Ta11(FeSe4)2
mp-12901,-0.54944388,Tb6FeSb2
mp-779314,-2.355189032,Li2CrPHO5
mp-862630,-0.090219406,ReRu3
mp-21077,-0.776555316,LaNiGe2
mp-998979,-0.028151973,Ti3In
mp-616135,-0.34445979,Cs5SiP3
mp-567371,-0.731743706,Sr3Li4(GeN3)2
mp-973136,-2.311415122,LiSmO3
mp-578628,-2.058671829,Sr2YCu3(PbO4)2
mp-865514,-0.687064451,YSnAu2
mp-697797,-2.53336175,V(PO3)4
mp-758054,-1.963867256,LiAgF4
mp-24075,-2.326348907,Ho(HO)3
mp-18744,-3.166714216,Sr2ErMoO6
mp-972657,-0.602494172,SmBiAu2
mp-755414,-1.725277028,LiTiS2
mp-6496,-1.797054778,Ba2Na(CuO2)3
mp-864999,-0.876002525,Dy2IrRh
mp-23059,-1.866696368,Rb2SnCl6
mp-12060,-0.857419314,Nd(AsPd)2
mp-8188,-3.115490553,KScO2
mp-3887,-0.659197044,Li3GaN2
mp-2423,-1.702922025,US
mp-770833,-2.352606908,Li2SnBO4
mp-541368,-1.839863595,Tl4V2O7
mp-27669,-0.421405872,HS3N
mp-4394,-2.979079371,Pr2Sn2O7
mp-558106,-0.779946727,SnH58C16S4(N11O9)2
mp-29066,-0.353782522,Al3Fe2Si3
mp-776461,-2.860403593,BaNb3NO7
mp-706910,-2.078415209,MgB2H6O7
mp-582767,-1.950793908,La3CuGeS7
mp-4815,-1.078046899,Pr(SiRh)2
mp-743613,-1.320402499,KMnH5(SO5)2
mp-976407,0.182285926,Li3Ac
mp-7976,-2.985862229,RbGdO2
mp-640118,-0.280429977,CeZn3
mp-6336,-2.567394397,Na3In(PO4)2
mp-571258,-0.905044957,Er6I7
mp-22444,-0.412699375,Ta4FeP
mp-764547,-2.366022637,LiFe2(BO3)2
mp-558206,-3.105643899,K9U6BiO24
mp-767208,-0.582924248,Sb17S27
mp-759289,-2.514498976,LiBi(PO3)4
mp-391,-0.515136447,HoAl2
mp-567443,-0.722685319,Sc4Si7Ni12
mp-42054,-3.149857681,BaLaTaZnO6
mp-30359,-0.339791001,TmAg2
mp-13654,-0.822444819,Y3Sb4Au3
mp-21116,-0.575108835,CeCoGe3
mp-768476,-1.384942532,Li3VS4
mp-850364,-2.315103211,Fe4O3F5
mp-975390,0.224806804,RbCa3
mp-619791,-2.293531094,La5C2Cl9
mp-30282,-1.51266859,La2I5
mp-755071,-2.072449941,SnO2
mp-5905,-3.714096171,Y2BeO4
mp-8365,-0.49917761,MnB
mp-21500,-0.37543179,Yb2InCu2
mp-768166,-1.118713022,Dy(ClO4)3
mp-3555,-0.994075101,LaSiIr
mp-27413,-0.48391573,Mo8P5
mp-6903,-3.37675815,Na2Ca4ZrNbSi4O17F
mp-27342,-2.518563433,Ge5F12
mp-773359,-2.17601535,Li2VCoO4
mp-722860,-1.988063361,Na2MgH4(SO4)2
mp-541114,-3.302215031,Sr2RhF7
mp-542038,-3.750999299,Er3Si3O10F
mp-631480,1.357185183,IrOs2Br
mp-676325,-1.779486338,NbBi7O13
mp-753903,-2.029949969,Bi2B2O7
mp-554542,-3.44187934,Mg3B(OF)3
mp-867909,-0.617891803,ScCdRh2
mp-1179,-0.33077301,DyNi5
mp-21901,-0.331893576,SrIn4Ir
mp-675118,-4.281186977,Y2Th8O19
mp-762266,-2.239593674,Li2Cu2F7
mp-772521,-2.458903227,Li8TiO6
mp-961690,0.30453258,VGaNi
mp-19452,-2.621364567,V2Cd(P2O7)2
mp-773100,-2.949165039,La2BiO5
mp-755610,-3.108856647,Ba6HfO8
mp-972411,0.093918538,Tb3Yb
mp-4304,-0.838821231,SmSnAu
mp-862945,-1.084220808,NaPmTe2
mp-22935,-1.967381861,CsBrF
mp-4720,-0.47967302,Si2Ni6B
mp-684502,-2.334810591,Sn2P3O10
mp-16773,-2.942728839,KTb(PO3)4
mp-38843,-3.361675679,CaTa2O6
mp-626112,-1.230250943,H7NO6
mp-1910,-0.34175439,CeNi5
mp-753848,-1.127449289,Li(CuO)3
mp-542054,-1.647210232,Hg9(PO4)4
mp-764741,-2.344663983,Li3Fe8(BO3)8
mp-10985,-0.668997135,RbCu3S2
mp-571443,-0.301711054,SrMgIn3
mp-11525,-0.503128001,TmNi
mp-781080,-2.012843607,Fe4O5F3
mp-686086,-0.281462196,Tl9SbTe6
mp-20708,-0.593621456,In2Ni3S2
mp-26835,-2.463365692,Li3Bi5(PO4)6
mp-632402,-3.833653366,LiCaUF8
mp-631532,0.5195835,BaBe2Te
mp-22542,-0.560459368,Tm3PbC
mp-554615,-2.948473908,KEr(PO3)4
mp-768908,-3.187258788,Ho2TeO2
mp-1018942,-0.33807114,PrTlCd
mp-559822,-3.382411391,La2TaCl3O4
mp-752895,-2.628748931,Li3CuF4
mp-8039,-3.88976283,AlF3
mp-674361,-2.907922322,LiNbO3
mp-762292,-2.46450602,Li4V5O10
mp-1007693,-0.086834491,HfOs3
mp-631336,0.649415803,LaMgNb2
mp-775190,-2.230223019,Li2V3CuO8
mp-23310,-0.823626571,Yb4Bi3
mp-864906,-0.326553421,MgSnIr2
mp-756897,-2.024492345,DyTe3O8
mp-18812,-3.1956124,NdVO4
mp-982448,0.013709959,Pm3Y
mp-24001,-2.383228802,NaZn2P2HO8
mp-27295,-2.814314193,Mg14Ge5O24
mp-768094,-2.299163804,Na2FePCO7
mp-567271,-0.286651,Np(CuSi)2
mp-20647,-0.711775516,Nd2ScSi2
mp-766664,-2.59099848,LiFeSiO4
mp-23942,-1.877822693,KPHNO2
mp-39387,-3.433492495,SrLiTa2O6F
mp-30526,-0.183547413,Mn4Al19
mp-975463,-2.237780791,RbAcO3
mp-674297,-1.445783056,NaNO3
mp-996942,-0.968168593,Ba6In2NF
mp-3248,-2.869808067,TbAsO4
mp-19996,-3.430172004,Ba2GdNbO6
mp-753306,-3.921323128,YUO4
mp-156,0.003320302,La
mp-974603,-1.717123154,HgF2
mp-775442,-2.010215406,Li4V3Ni3(SnO8)2
mp-765484,-1.60737432,MnH6SO6
mp-557933,-3.281353737,SiO2
mp-1013849,-1.880693674,Li3Fe2(GeO4)3
mp-557049,-0.958914497,CdSbS2Cl
mp-5152,-3.801652992,La2SiO5
mp-1008929,0.067927204,FeN
mp-540292,-2.470134523,LiCrPO5
mp-31417,-3.769394471,Nd3TaO7
mp-6244,-1.009351171,HoCuPbSe3
mp-37070,-2.392384711,Pr2SmS4
mp-763950,-2.569198428,V3O5F
mp-29861,-1.073923826,K2Mn3S4
mp-774714,-2.54144845,Li3Sb(PO4)2
mp-561270,-1.39458668,SnH4C2NO4F
mp-20911,-0.401584781,LaIn5Ir
mp-5080,-0.281611103,Ba5Mg18Si13
mp-196,-0.458499701,Al5Co2
mp-559375,-1.753005151,CsKTeH6SO10
mp-998398,-0.728100548,InSnBr3
mp-864922,-0.422296656,MgZnAu2
mp-541612,-2.353407002,La4Os6O19
mp-706995,-0.830636009,ZnCoH18N6Cl5
mp-628768,-0.453777142,In4SnSe4
mp-676684,-3.224797867,Sr4Nb2O9
mp-971844,-0.31711261,Tm6GaCo2
mp-22682,-0.472977452,In2Pt
mp-767393,-3.074798844,Li15Ti11Nb5O42
mp-31011,-0.979308548,Y2Si2Rh
mp-29483,-1.163742986,MgInBr3
mp-1018819,-0.333201059,NdTlCd
mp-770494,-1.248315692,LaMgI5
mp-9460,-0.03228808,Zn3N2
mp-1084,-0.211666674,ZrB12
mp-555472,-3.136755246,Na4Zr2(SiO4)3
mp-6094,-3.396991273,Ca2MgSi2O7
mp-775285,-1.205659889,Li2CoNi3O8
mp-542724,-3.577942508,LaNbO4
mp-705333,-2.518918937,LiMo(PO4)2
mp-559493,-1.823747289,TiPCl7O
mp-3521,-3.24897312,NaBF4
mp-29156,-1.168490188,NaTa3N5
mp-972542,-0.568230288,SmTlAu2
mp-999318,-0.012487037,NiBi
mp-976405,0.32500967,NaEr3
mp-1020613,-1.637196944,Rb5GaO4
mp-7790,-1.429308387,Ti2N
mp-20114,-0.501911111,TmMnGe
mp-13744,-1.828108825,Rb3GaO3
mp-568247,-0.72635855,TmAu3
mp-776005,-1.808488528,Li4FeBi(TeO6)2
mp-977364,-0.236296289,HoPaOs2
mp-558769,-4.070722087,Na3Li4Th6F31
mp-975170,-0.20543419,RbHg3
mp-13974,-3.423339255,Ho2SeO2
mp-865125,-0.698292047,MgGaRh2
mp-10418,-1.871302029,RbSbO2
mp-974768,0.210352181,Rb2Mg
mp-2721,-3.741368559,Ce2O3
mp-9473,-0.775048649,Ba(NiP)2
mp-540942,-2.658505927,KDy2Cl7
mp-755713,-3.00201936,Tb2SbO2
mp-6287,-0.504089776,Cu6Hg3(AsS3)4
mp-30426,-0.51551846,BaCdBi2
mp-975236,-0.905806639,RbPtO3
mp-29417,-1.643189832,Na3ScBr6
mp-976126,0.579855723,K3Rh
mp-1994,-1.023769498,HfB2
mp-9573,-0.39090142,NaBeAs
mp-756296,-3.662736762,ErTiO3
mp-851,-0.936625658,ErPd
mp-770386,-2.541060143,LiMnAlO4
mp-10219,-4.240923497,YOF
mp-669347,-2.38007824,KCuF3
mp-20875,-0.752514791,TbInRh
mp-9437,-0.336694497,NbFeSb
mp-21372,-2.235944299,CePRuO
mp-10731,-3.008525463,Ba2PrSbO6
mp-743860,-1.958751152,VZn2HO5
mp-669521,-2.203954799,Nb3Te4ClO15
mp-29704,-2.012904892,Cs(SO2)2
mp-570298,-0.607608332,Ba(SbAu)2
mp-773510,-2.29241336,TiV2CrO10
mp-973528,0.30380692,K3Si
mp-13541,-3.20695176,Sr2Mg(BO3)2
mp-558469,-0.511274757,Ag2PS3
mp-7784,-1.750347108,SbAsO4
mp-33551,-1.591972357,LiFe5O8
mp-560921,-2.216854735,NaAlAs2O7
mp-6493,-3.384382467,CaMgSiO4
mp-777477,-2.874166478,LiFeF4
mp-558065,-2.521425052,In4(P2O7)3
mp-866696,-2.297549441,La3ScBeS7
mp-13283,-2.482424321,Sm(ErS2)3
mp-5109,-0.695114956,Y(NiGe)2
mp-676767,-3.820872949,Ba4Yb3F17
mp-568771,-0.560778972,Sr3(B3Rh4)2
mp-22767,-0.489840649,ThGa4Co
mp-22994,-1.398625405,LiIO3
mp-974068,0.065414959,Nd3Th
mp-7656,-1.819787807,Na5GaO4
mp-644481,-3.256419012,ScO
mp-705900,-2.148355198,Hf3Tl10Mo12PbO48
mp-12710,-0.673183842,PrZnPd
mp-721249,-2.510142652,Li10Ge(PO6)2
mp-580930,-0.804071807,YGe2Ir
mp-16984,-2.661904392,Sr3MgRhO6
mp-975079,-0.011434196,MnZn3
mp-30550,-0.316604716,AlAu2
mp-772025,-2.354574015,TaIn3O7
mp-625812,-1.08969475,Sr(H2O3)2
mp-558195,-3.345643997,Ba2HoB2ClO6
mp-556030,-2.461768498,BaCuCO3F2
mp-684768,-3.334737977,Sm2O3
mp-773061,-3.342733669,Ba6Ti7Nb9O42
mp-560624,-2.581240232,Na5Bi(P2O7)2
mp-17344,-1.543463137,RbEr2Cu3S5
mp-29459,-1.098721771,Rb3Mo2Br9
mp-752429,-2.477095703,ScTlO3
mp-943462,-2.066480314,LiFeHSO5
mp-1619,-0.406362214,Ba3Si4
mp-765705,-2.37955781,NaV5O8
mp-554605,-2.284362185,Rb2SbCl3F2
mp-761036,-1.336563861,CdSeO4
mp-631301,0.798312453,HgPRh
mp-763353,-2.025597518,Fe4O5F3
mp-776076,-3.383656443,BaSiO3
mp-669471,-0.437769327,HgS4(NCl)3
mp-762311,-0.969167349,ZnH12N4Cl4O3
mp-559094,-1.119098172,Cu2H3ClO3
mp-752724,-3.83465108,Ho2TiO5
mp-19214,-3.173927104,CeVO4
mp-554159,-2.982751954,Li2BeSiO4
mp-755652,-3.887080507,Dy3TaO7
mp-13470,-0.401205961,Zr3Al2
mp-29187,-0.317043547,Co(SiP)3
mp-2648,-1.451422036,NbS2
mp-23526,-1.203712907,KClO4
mp-758840,-2.512647604,KB6P(H2O7)2
mp-27583,-2.873252871,Sr2P6O17
mp-19376,-2.937210765,TiMnO3
mp-569427,-0.948954146,K4Sn(TeSe)2
mp-965,-0.530750481,TbB2
mp-556125,-2.220572533,Na2BHO3
mp-774810,-2.527658218,RbPHO3F
mp-772748,-2.868470896,Ba2P6O17
mp-776726,-3.218022647,LiV2F7
mp-1019511,-3.117393672,AlPO4
mp-568747,-0.519135691,K(NiSe)2
mp-24563,-2.082917024,Ga2P3(HO3)3
mp-2157,-0.07967203,Co3W
mp-5737,-1.715594206,TbCuS2
mp-569218,-0.342828578,Ba3Al3Ga2
mp-580589,-2.491037788,Cs2NaErCl6
mp-556051,-2.081571539,Rb2GeO3
mp-34891,-1.735084969,Li2Mn15O32
mp-2988,-0.489081543,Li2GaRh
mp-34770,-1.919394475,Sr(GdSe2)2
mp-8953,-1.029352451,YbAsPd
mp-27262,-0.652405501,Ca9Zn4Bi9
mp-600033,-3.280939993,SiO2
mp-22817,-0.24834364,TaTe4
mp-20680,-0.915990164,Ce4Sb3
mp-981384,0.098845773,ScOs3
mp-765230,-2.99261314,LiVOF3
mp-793,-0.48626603,Ca5Si3
mp-975838,0.539904203,K3Nd
mp-570775,-0.719715215,BaAu
mp-780897,-2.236327877,Li2Mn2P4H6O17
mp-683949,-1.209580191,AlP3(NCl3)3
mp-754779,-1.458286022,Li2NbS3
mp-8999,-0.330056921,NbNiTe5
mp-733653,-2.773251622,CaAl2Si2(H2O5)2
mp-769778,-2.559589116,Ca2In2O5
mp-541041,-2.734207895,NdAg(PO3)4
mp-973738,-1.030167016,GeBO3
mp-2053,-0.269624266,Nb3Sb
mp-8062,-0.204256787,SiC
mp-570306,-0.600078136,TlGaI4
mp-559663,-2.901421874,SrLiNiF6
mp-13027,-0.720910567,YbZnAu
mp-862702,-0.365041314,Sc2AgHg
mp-974861,-1.214847856,Mn2Co2O5
mp-971979,-0.339230218,Tm2ZnAg
mp-999441,0.289548595,Nb3Cr
mp-560120,-1.187215262,Na2Pd(NO3)4
mp-771387,-2.172743538,Li6Mn2C4SO16
mp-622105,-2.203193149,Ba2DyCu3O7
mp-19475,-2.911109656,LaCo(BO2)5
mp-633099,-1.82933928,Sb2Pb2O7
mp-766034,-1.858985943,Sr5(IrO3)6
mp-559722,-0.83405709,Hg3(NO4)2
mp-771317,-2.618337912,Ti5Sb5O17
mp-1113,-0.260648387,BW2
mp-9071,-0.522414106,Na8TiAs4
mp-8267,-1.061542444,KPS3
mp-510661,-1.493141797,Gd(IO3)3
mp-9625,-2.969840474,LiMgPO4
mp-631388,0.646362905,CdIrRu
mp-707775,-2.34371585,K2B5H5O11
mp-555349,-3.300387921,La2CO5
mp-865234,-0.347297369,TaZnRu2
mp-15706,-0.559163102,LuB2C
mp-764595,-2.306359918,Na2V2O5
mp-759786,-3.349018815,Na2Ti7O15
mp-16958,-0.815047624,LaNi5P3
mp-19763,-0.656457859,EuGe3Pt
mp-561,-0.861734869,Nb3Se4
mp-17128,-2.948647528,CsTb(PO3)4
mp-861909,-0.377711594,CdGaRh2
mp-1009483,0.921976439,NiN
mp-1018020,-0.138916221,NiAgSe2
mp-28921,-0.497217144,Tl5Se2Br
mp-4022,-0.894799351,Zr2CoSi2
mp-758265,-2.111925991,LiCu2F6
mp-684591,-3.320493213,Al2O3
mp-978099,-2.990030795,K3Gd(PO4)2
mp-722246,-2.020846619,SiH10(O2F3)2
mp-35690,-1.366819854,Co5RuO8
mp-33667,-2.175903063,LiDyS2
mp-583684,-0.108476119,EuCd11
mp-30433,-0.675790895,BaSn3Pt
mp-541448,-1.094649626,Rb3(FeS2)2
mp-769511,-2.403436578,NaLiV2O6
mp-16596,-3.10614082,K3HoSi2O7
mp-643727,-1.288038861,HPbBrO
mp-695955,-1.469242629,P3H11N4O9
mp-771977,-2.88303763,TmAsO4
mp-603633,-1.926062973,SnP4H8N2O13
mp-21495,-0.562010413,CrFeP
mp-672341,-3.701136182,UF6
mp-568021,-0.431042821,Er3AlC
mp-7206,-1.551398861,TcAgO4
mp-29332,-1.303333644,Pt(PbO2)2
mp-983583,-0.299680164,Er2ZnCu
mp-570557,-0.08747641,NbCo3
mp-22902,-0.368131822,LiBi
mp-755592,-2.42044115,K2TbO3
mp-643385,-2.073379285,SrHIO
mp-20582,-0.50999827,LaIn
mp-8950,-1.187213531,NdAsPd
mp-15442,-0.917385834,SmSi3Pt5
mp-754140,-2.313278424,CaSeO3
mp-1007857,0.02411736,Ga
mp-1148,-0.518291215,Th2Pd
mp-689940,-2.140678151,CoPO4
mp-541937,-0.941428778,Zn(InS2)2
mp-1018694,-0.575831812,ErZnGa
mp-976948,0.461065899,Ni3H
mp-755805,-1.99514275,Sc(CuO2)2
mp-764909,-2.53361864,Li5Mn3Cr(PO4)4
mp-583234,-0.087078864,Bi4I
mp-971941,-0.151932539,Zn3Ni
mp-28705,-0.6194795,CaB2Rh3
mp-766175,-2.547957969,RbInBP2HO9
mp-866025,-0.326815318,CsCr5Te8
mp-38089,-1.651834708,Na10Mn4O9
mp-770199,-2.416622969,Li2CoSn3(PO4)6
mp-557911,-3.216374516,Al3Pb5F19
mp-31301,-0.279483022,LiSn4Au3
mp-13039,-2.543991147,Tm2C(NO)2
mp-4967,-2.537862778,MgSO4
mp-39412,-2.781543859,SrLaMn2O6