id,formation_energy_per_atom,pretty_formula
mp-611836,0.006543321,O2
mp-642625,-0.686082516,Hg12SbBr(ClO3)2
mp-753368,-2.21646048,YbIO
mp-755621,-2.849028191,BaNb3NO7
mp-9719,-0.632114755,Na2LiAlP2
mp-10468,-0.868586652,CeBPt2
mp-567687,-0.28526963,CrI2
mp-973919,-1.633000926,NpOsO3
mp-17909,-3.277478828,SiO2
mp-996989,-0.80591788,LiAgO2
mp-553896,-2.983287826,K3MoF6
mp-8909,-1.41021544,RuO2
mp-6137,-1.073985837,Mg4P6SN12
mp-10620,-3.114541743,LiPrO2
mp-667343,-1.452897054,Re2(HgO2)5
mp-19365,-3.035845032,Ba3V2O8
mp-30380,-0.151624665,GaAu2
mp-27726,-1.762125759,SO2
mp-30856,-0.316721816,ZnPt3
mp-30903,-1.872249806,Ba3CrS5
mp-20322,-0.561637659,La(CuGe)2
mp-1013550,-0.987235701,Ca3SbP
mp-558707,-2.47294775,K2UAs2O9
mp-773060,-3.504643363,Ba6Ta9Ti7O42
mp-1014212,0.540978535,Si
mp-10606,-0.343002867,Sm3TlC
mp-976848,0.019136291,NiRuO3
mp-4816,-1.851325169,LaGaS3
mp-4408,-3.878023553,Sm2Zr2O7
mp-2816,-0.269042123,Nd2Tl
mp-861955,-0.429318167,LiPm2Ge
mp-680698,-1.932952206,CeSI
mp-14378,-0.146806279,Li12Al3Si4
mp-769800,-3.119357251,SrEu4O5
mp-1018687,-2.095039949,ErS2
mp-673069,-2.381213601,Sb(PO3)4
mp-998193,-2.751531185,RbSnF3
mp-2547,-0.866216925,YbPd
mp-15355,-0.4262364,U(BRu)4
mp-778245,-2.777902259,Li4FeF8
mp-9721,-1.713521172,Ca3GeO
mp-707377,-2.048090041,RbHSO4
mp-20666,-0.608078691,SmIn2Rh
mp-755512,-3.705353298,Sm3NbO7
mp-763057,-1.341117989,Mn(CoO3)2
mp-505281,-2.081516345,CsSbS6(O3F)6
mp-27389,-2.827846295,KSb2F7
mp-740711,-0.500292985,Cs3B6H12Se4Br
mp-1219,-0.4593703,BaGa2
mp-675710,-3.340640472,K2U2O7
mp-568965,-1.41829164,CaSiN2
mp-571537,-1.967024349,ZrCl2
mp-755004,-1.751497468,CsInO2
mp-560151,-3.129873608,AlPO4
mp-756560,-3.211336156,Li2Ti3O7
mp-774547,-3.413192694,Er2GeO5
mp-771275,-1.893015543,Li4V(TeO4)3
mp-778794,-2.138766787,V3Cr2Sb3O16
mp-562072,-1.786999424,Cs3SbO3
mp-756437,-2.040515232,SrLaBr5
mp-581733,-0.553064565,Zr4CuP
mp-30528,-1.405352999,MnTlCl3
mp-698627,-2.432409426,Ti5Fe11O24
mp-16989,-0.440753312,K5SnAs3
mp-29998,-1.337914044,La3SbI3
mp-568423,-0.34222798,AlPI8
mp-445,-0.025307699,NdCo2
mp-763609,-2.075611994,Li4Mn5O10
mp-18566,-3.613522303,LaSnF7
mp-676820,-3.798404687,Tm2Zr8O19
mp-770648,-2.422300488,Li8ZrO6
mp-570425,-0.325307078,YbGa5
mp-31322,-1.347365276,La6OsI10
mp-984704,-0.3309347,CaAgHg2
mp-1019568,-3.431730427,CaAl2SiO6
mp-631661,0.654481348,Y2FeB
mp-560632,-2.729044054,NaGaSiO4
mp-557384,-3.226273936,MgUB2O7
mp-555052,-2.748121037,MnSb2F12
mp-775226,-2.442558938,LiMn2(BO3)2
mp-21893,-0.123449157,MnTe2
mp-416,0.01221966,Cr3Os
mp-546125,-2.708512668,ScAsO4
mp-754556,-0.984499253,Nb3N5
mp-672275,-0.641675542,Ce3(Ge3Pd10)2
mp-744463,-2.485297848,Li2Ti4Co(AsO5)4
mp-760002,-2.443399099,Li3Cu2F7
mp-12944,-2.874575806,HoAsO4
mp-961698,-0.417166876,LiZnP
mp-769289,-2.416060745,Y2Hg2O5
mp-13066,-4.003365217,Er2O3
mp-2184,-1.639559549,As2O3
mp-571057,-0.793324773,KY(PSe3)2
mp-974063,-0.440384065,HoScRu2
mp-42897,-3.384221177,NaPrTiNbO6F
mp-21620,-0.496353571,U2Si5Tc3
mp-559747,-3.700555354,La2Ti2SiO9
mp-22387,-1.614186305,U2N3
mp-1484,-1.064380981,Pr4Sb3
mp-772899,-2.567312954,Li3ZrO3
mp-703545,-0.863309543,SbH6C(NCl2)3
mp-22422,-1.396064005,Ce3Te4
mp-18240,-0.609096485,Tl2Cu2SnS4
mp-1019548,-2.086836379,BaGe(S2O7)3
mp-22228,-0.487925209,DyCoSn
mp-530905,-3.299991892,Ba23U8O48
mp-978881,0.341343865,SnAs3
mp-1009582,1.101567371,NiC
mp-8861,-3.350165451,Rb2MgF4
mp-554056,-2.994127102,Ca2B5BrO9
mp-541721,-2.663690439,Ba3ErRu2O9
mp-643913,-0.721692266,CoH6(NCl)2
mp-3792,-3.740729586,YAlO3
mp-780477,-2.62817983,Li3MnV(PO4)3
mp-754113,-3.552806267,TmClO
mp-24595,-2.803848454,Ca2B5H2ClO10
mp-18773,-2.188767265,WO3
mp-758104,-0.233027034,Mn11Pd21
mp-865715,-0.263259089,Li2PrTl
mp-694915,-2.8200504,CaLaMnSnO6
mp-27198,-1.098822599,Cd(NO3)2
mp-550685,-2.805875042,Ba2CaTeO6
mp-25840,-3.038840279,LiTi2(PO4)3
mp-953,-0.148663004,NbZn3
mp-556417,-2.344554651,Rb2NiF6
mp-977558,-0.400369395,MgPaRu2
mp-560128,-2.383193862,EuHSO5
mp-17751,-0.832514261,Y5Ge3
mp-625860,-1.469829861,Sr(H8O5)2
mp-557574,-0.6159462,Cu2HgGeS4
mp-15417,-0.462865185,K2GaP2
mp-696683,-2.916208214,K3SnHF8
mp-558272,-2.996184849,Na3ThP3O11
mp-16305,-1.192987315,ScPRu
mp-24727,-0.786352176,TmH2
mp-9806,-2.573542145,KGd(CO3)2
mp-570051,-0.231390708,Tl2SnHgTe4
mp-33009,-1.783478451,MnO2
mp-998415,-0.801035681,CsSeBr3
mp-5526,-0.729807528,La(CoSi)2
mp-766254,-2.204268572,Cu(PO3)3
mp-865227,-0.28017653,TmMgCd2
mp-15795,-1.696437227,LiDySe2
mp-627,-1.058648709,NpSe
mp-570577,-1.370438999,SrAlSi4N7
mp-772573,-2.474734168,Li2Cr5B3O13
mp-505632,-1.108233987,CsFeS2
mp-9339,-0.985660264,NbP
mp-28891,-2.509286154,Li7TaO6
mp-757138,-2.51316048,Li2Sn(PO3)4
mp-680232,-0.483083796,K2AgC3(SN)3
mp-705528,-2.278080989,NaCaB5H8O13
mp-1018126,0.023893357,GaBi
mp-978795,-0.150578182,Sm3Hg
mp-673656,-1.842634667,Y2Se3
mp-16691,-3.413667972,SrLi2Ti6O14
mp-985593,-1.488196028,NaAg(CO2)2
mp-10226,-2.178303623,NaYS2
mp-504966,-2.673766951,Ba2Y2CuPtO8
mp-505332,-0.584790619,LaFeSi
mp-13740,-0.44776819,AgAsS2
mp-28321,-1.132876934,Sc7CI12
mp-2090,-0.059774585,FeCo
mp-631488,0.79384993,NiRuBr2
mp-753357,-1.795538163,SrBi5O9
mp-973395,-0.631721064,Ho3ReB7
mp-9085,-2.156016381,CsTbS2
mp-777738,-2.101258922,Al(HO)3
mp-561243,-2.514587611,Sr2CuClO2
mp-680813,-0.112405491,SrIn6Cu7
mp-563032,-1.009269576,Ba21Si2O5
mp-771028,-2.431081764,Li3SiBiBO7
mp-773607,-2.275811129,LiTiNiO4
mp-558580,-2.722338153,Na2Zn(SiO3)2
mp-561396,-3.162222405,Li3CrF6
mp-556075,-3.759373154,SrDy2O4
mp-8780,-0.524048297,Cr2N
mp-18717,-2.898352925,SrVO3
mp-782034,-2.959702688,YNb2NO5
mp-18935,-2.690649208,K2V(PO4)2
mp-20521,-0.915415452,ScInPt2
mp-560861,-3.003850495,Cs2KMnF6
mp-22977,-1.88637179,CsVCl3
mp-554825,-2.568859981,K2SnP2O7
mp-571665,-1.022406121,Ho(SiPt)2
mp-6074,-3.307203082,KRb2TiF6
mp-697313,-2.978847378,Al24Tl10Cd7(SiO4)24
mp-541720,-2.652152552,Ba3DyRu2O9
mp-774374,-1.570024526,Na3FeO4
mp-8020,-3.618344366,LaTiO3
mp-18941,-2.140331019,Co2SiO4
mp-11697,-0.144754642,TaSb2
mp-559238,-1.365428846,CsLi2BS3
mp-755043,-3.346263833,Al2Si2O7
mp-676524,-1.14630171,Tb7(CuTe4)3
mp-556233,-1.751501734,KAs4ClO6
mp-25940,-2.318162381,BiP2O7
mp-27517,-0.885099069,Rb2CoI4
mp-770808,-2.433231851,LiB2SbO5
mp-997085,-1.841503639,SrAgO2
mp-600000,-3.278901744,SiO2
mp-19830,-1.969275419,ErN
mp-19069,-0.677971856,NiAgO2
mp-973545,0.01755955,Ga3Te
mp-22506,-0.360975369,Cs6InAs3
mp-764571,-2.742355802,Li2VFeP2(O4F)2
mp-20552,-0.055501732,Cr2As
mp-19792,-0.501715632,Zr(Fe2Si)2
mp-677250,-3.210525636,K2LuZr(PO4)3
mp-770362,-2.808560726,Li3Al2VO6
mp-771396,-1.734419327,Li4(FeO2)9
mp-721253,-0.850151401,Li10Si(PSe6)2
mp-5794,-2.193634652,Zn(GaO2)2
mp-780207,-2.04610106,Li5FeO4
mp-769538,-2.60532467,Li3Mn2(SiO4)2
mp-1973,-0.30191012,NbGa3
mp-8484,-1.059501252,ZnO2
mp-850340,-2.316137286,Fe4O3F5
mp-755537,-4.009740789,Y2HfO5
mp-1702,-0.708680707,LaRh2
mp-562057,-3.728490768,Cs2Ca2Be3F12
mp-29216,-1.701012006,Cs2PtCl4
mp-571209,-0.376813587,Y3(B3Os4)2
mp-504922,-2.98922749,UPbO4
mp-768915,-1.376831488,Na3AuO3
mp-568531,-0.235787268,Bi2Pt
mp-554918,-3.532755739,BaY6Si3B6(O12F)2
mp-14568,-4.010526377,BaMgF4
mp-30335,-0.166393765,Al23V4
mp-849271,-0.706137662,AgIO3
mp-775122,-3.125478219,LiLaNb4O12
mp-759128,-2.466889405,Li3Sb2(PO4)3
mp-8323,-3.042297012,Dy2S2O
mp-11538,-0.59823184,TbAlNi
mp-15886,-1.702143231,Na2US3
mp-756981,-2.288581912,K2SbPCO7
mp-890,-0.694884589,NdIr2
mp-20382,-0.369951854,Ti6Sn5
mp-625513,-1.34721425,Te(HO2)2
mp-772627,-2.752855774,Ho2(WO4)3
mp-769373,-2.047931937,Na6Sn2P(CO4)4
mp-542339,-0.121196482,CsIn3
mp-30519,-1.389476368,Tl3PbCl5
mp-276,-0.434665813,TbNi2
mp-4458,-0.615590724,Th(MnSi)2
mp-27368,-0.244039431,NaLi5Sn4
mp-38170,-0.373499831,Cd(InSe2)2
mp-5824,-0.809724074,Hg2NO4
mp-1922,-0.426616108,RuSe2
mp-27259,-0.810132911,CsCrI3
mp-553901,-0.854600949,H6RuN3Cl3O
mp-1016927,-2.30146907,TiZnO3
mp-8201,-2.501669569,Rb3PdF5
mp-971957,-0.239677205,Tm3Pb
mp-15653,-0.828273009,CeSi2Ni
mp-1018118,-0.70486647,TmSbPd
mp-12613,-0.637166591,LaNiSn
mp-541149,-0.607848428,Cu4Bi7S12
mp-542271,-1.960309059,Y2H16S3O20
mp-22482,-0.012199156,ErMn12
mp-771992,-1.810342359,Na2Fe2C4SO16
mp-27775,-2.571970042,U(BiO3)2
mp-3531,-3.231777046,Ca2P2O7
mp-973777,-0.548269589,Hg3F
mp-11726,-0.589757809,LaSi4Ni9
mp-561286,-1.140019202,ZnS
mp-12866,-2.653044059,SrSnO3
mp-10221,-0.641840971,Pr3(NiGe)4
mp-864824,-0.711045332,LiTbAu2
mp-30607,-0.053884008,ErMg2
mp-15599,-2.65466568,K2Ca2(SO4)3
mp-570099,-1.221510527,RbVBr3
mp-756732,-0.208485256,Rb3Sn4Au
mp-645291,-1.772265244,As3Pb5ClO12
mp-21934,-0.903931306,In9Pb4S17
mp-622570,-0.117003766,Ti2Cu3
mp-28279,-2.472614903,Gd2NCl3
mp-510402,-2.395395827,GdS
mp-849470,-2.221858717,Li7Co(O2F)2
mp-775852,-1.960313296,Li4Sb2C4SO16
mp-9850,-0.534652395,DyP5
mp-774370,-2.510475855,Li6Mn5Fe(BO3)6
mp-849331,-2.145385543,Ti2N2O
mp-1013726,-2.215756285,Cd4SF6
mp-556066,-3.384004057,Sr2LiSiO4F
mp-850972,-2.164843737,Li4Mn5Cr2O12
mp-1757,-0.082399365,DyFe2
mp-38442,-1.767771153,CsNd5Se8
mp-707285,-1.144011182,CuH16(IO8)2
mp-554063,-2.474691646,SmSeClO3
mp-557658,-2.668526457,RbZnB(PO4)2
mp-4867,-3.483388627,CaAl4O7
mp-13448,-0.249815278,Zn11Rh2
mp-10410,-1.978168376,Ba4Sm2Cd3S10
mp-867802,-0.408210114,Sc2CuOs
mp-21511,-0.414162507,K2NaInP2
mp-569287,-0.205398335,TlPAuSe3
mp-10878,-0.263535795,Ca(MnAl2)4
mp-13939,-3.055068891,Sr2ErReO6
mp-765289,-2.407891508,LiSnPO4
mp-752863,-1.368178221,K4N2O5
mp-9068,-0.545476402,K2NaAlP2
mp-16783,-1.779222952,Cd2Re2O7
mp-758221,-1.537187356,CaH12S2(NO5)2
mp-2551,-0.106201227,DyCo5
mp-571350,-0.779655934,Ba(AsPd)2
mp-7221,-0.502652819,Nb5(AsPd)4
mp-3488,-3.179757589,Na2Ti3O7
mp-15985,-0.485648824,Zr3(Cu2Ge)2
mp-775989,-2.414470924,CrFe3Sb2(PO4)6
mp-570238,-0.140950257,P10Au7I
mp-28007,-1.488040628,BaHgS2
mp-12180,-1.019507184,NaS2
mp-636654,-2.860223953,LaTiNbBi2O9
mp-583221,-1.286889702,Ba7B4Se13
mp-849416,-1.515677389,Li4Fe2Cu3O10
mp-775021,-2.814171481,NaLi3Fe4(SiO3)8
mp-505335,-0.63445632,Ho2Mn3Si5
mp-571541,-0.591620754,Sr8In4Cu3N5
mp-767430,-2.28002592,Na3CdPCO7
mp-780053,-2.151502176,Na2Ge2O5
mp-753815,-3.760598866,CaY2O4
mp-11666,-0.417969141,Pr2(Zn2Ge)3
mp-675012,-3.788819366,Ho2Zr8O19
mp-778019,-1.19838122,Ag2H16O9
mp-1013916,-2.237447775,Li3V2(GeO4)3
mp-559379,-1.565965061,SbTeClO3
mp-20202,-0.20569182,MgSn4Ru
mp-4025,-0.90063599,TmNiSb
mp-695295,-0.503886046,H22RuN7(ClO2)4
mp-975206,-1.811311347,RbSbO3
mp-19321,-1.555911474,Na6MnO4
mp-567369,-0.106646948,Nd4Mg3Co2
mp-20449,-0.678589357,CeInIr
mp-690674,-1.457197257,NdAsSe
mp-558133,-2.900287183,Rb2MnF6
mp-850283,-3.356735075,HfNbO4
mp-777479,-2.4525439,VO2
mp-645568,-2.040406662,TlCr(MoO4)2
mp-780370,-3.664476819,Sm3Al5O12
mp-3427,-3.099469879,LiAlO2
mp-19875,-0.817402133,GdSiRu
mp-27280,-1.826492207,Na2MnCl4
mp-1005850,0.650804069,Yb3U
mp-755598,-0.897826098,Ag2TeO4
mp-581805,-0.229795316,Ni3Mo3N
mp-560074,-2.839546145,NaYbP2O7
mp-31361,-1.820734088,EuIBr
mp-10318,-0.773139848,Tb2Co3Si5
mp-647164,-0.525250089,Cu12Sb4S13
mp-30175,-0.290980253,Ca(AlZn)2
mp-20043,-0.998022283,ErGeRh
mp-2072,-0.837910825,KTe
mp-24488,-1.775790589,NaZn2H3(SO4)2
mp-558588,-1.315231622,BaPt2S3
mp-863696,-0.289757195,Pm2MgSi
mp-13450,-0.543682201,HfSb
mp-649086,-2.067905633,GaFeO3
mp-1648,-0.135193241,Al12Re
mp-962068,-0.29688997,CaMgSn
mp-542807,-1.061736486,Cu2Te2Br2O5
mp-10200,-0.74958748,ZrBeSi
mp-7387,-2.049811618,KAgF4
mp-685982,-2.292921785,MgIn2O4
mp-706276,-2.800771713,Li3Nb4O12
mp-766286,-1.459866705,Bi8Rh8O27
mp-772566,-2.780077144,Ho2(WO4)3
mp-621581,-0.708274337,P3Rh4
mp-28518,-0.797313475,Tl6SBr4
mp-19197,-2.7606492,Ba3CrO5
mp-559112,-1.740695924,K2Zn6O7
mp-758097,-0.5866837,H6C2N4O
mp-1019539,-2.441573518,BaB2S3O13
mp-695250,-3.491549842,BaLa7Mg5Nb3O24
mp-607399,-1.793471462,Al2CrCl8
mp-755342,-3.217129448,LuGaO3
mp-23432,-3.603979683,BaClF
mp-13335,-2.459828849,Cd(BO2)2
mp-16839,-0.615364511,Na3WN3
mp-625392,-2.378446756,Lu(HO)3
mp-768125,-2.212870836,Na3GePCO7
mp-11764,-0.915595433,HoSnPd
mp-768355,-4.326448461,BaYF5
mp-638374,-2.643933265,BaNdFe2O5
mp-756277,-3.909014026,Er3TaO7
mp-15239,-2.925060624,Nd3Ga5O12
mp-773199,-1.523643661,Cs6Co2O7
mp-699229,-1.513101907,HPb3ClO3
mp-24195,-1.505239303,MgP2(H8O5)2
mp-649957,-1.535948027,Cu3Mo2O9
mp-973767,-0.415401156,PmBi3
mp-555089,-3.054024106,SrLi4Ca(SiO4)2
mp-774106,-2.566188964,Li3Fe2(SiO4)2
mp-24151,-0.786642312,DyH2
mp-774715,-3.223245513,Ba4LiNb3O12
mp-4782,-3.422867605,CaSnF6
mp-625150,-3.016201437,ScHO2
mp-766031,-2.135625117,NaMgH4SO6F
mp-542533,-1.96277996,CsNaB4H12O13
mp-559903,-2.200913557,NaLa(SeO3)2
mp-3975,-3.534289656,K2TaF7
mp-556645,-2.342398455,RbNbAsClO5
mp-30211,-0.873180579,La5Sn3I
mp-6191,-0.620035872,CeB2Rh2C
mp-969,-0.34552587,YbAl2
mp-1019794,-2.694929852,K3LiP2O7
mp-22056,-0.442888569,YIn2Ni
mp-22349,-0.446449976,Sm(FeGe)2
mp-998890,0.03469247,Cu
mp-554071,-1.042207106,Na8Nb2Cu4S21
mp-631577,0.80230074,BiAs2Os
mp-17753,-3.096682238,Nd3RuO7
mp-22426,-0.889655836,ScSiNi
mp-554094,-2.630744174,CaMg2(SO4)3
mp-768815,-1.785524804,NaSbAsCO7
mp-644758,-0.125646091,Fe2Mo4N
mp-864618,-0.43039751,BaHg2Pb
mp-31358,-2.628837595,RbBO2
mp-612861,-0.543236839,La(ReSi)2
mp-566325,-2.423820672,KEu(MoO4)2
mp-974365,0.389954274,RuAu3
mp-2012,-0.36890669,LiHg
mp-30314,-1.737771584,Cs2PdCl4
mp-22648,-0.664992878,FeCu2SnS4
mp-756052,-3.583673097,Ca3Zr2O7
mp-756428,-4.150229458,LaTh4O10
mp-28371,-1.722702191,K2Zn3O4
mp-558432,-1.896253275,Na3P(SO)2
mp-21644,-2.875003154,BaNb8O14
mp-9023,-0.743791978,ScSiAu
mp-690058,-2.273311879,FeP2O7
mp-850973,-2.595308439,V3O5F
mp-20190,-0.672121418,LaZnSn
mp-21850,0.069620117,Fe3SnC
mp-554552,-2.194014272,Zn3P2H2O9
mp-677430,-3.46632367,NaLiLa2Ti4O12
mp-1009538,1.214343086,PdC
mp-667386,-3.893698835,Na3Sr4Al5F26
mp-2511,-2.682597242,PbF2
mp-723043,-1.557791432,K2TeH6SeO10
mp-28447,-1.723288815,Mg(BiO3)2
mp-1068,-0.538700519,CuS2
mp-28369,-0.386171588,GeH3Cl
mp-567322,-0.983399556,KSm2Sb3Se8
mp-780155,-2.905326328,Li9Fe3(OF7)2
mp-862720,-0.389658445,Sr2CdIn
mp-19930,-2.524993598,Nd2Ru2O7
mp-628715,-0.970773164,KEuPSe4
mp-867362,-0.237790609,K2SrIn7
mp-19945,-0.766074388,Gd2MgGe2
mp-17486,-1.902692459,Ho3CuSiS7
mp-542245,-0.828796552,Yb2PbAu2
mp-770523,-2.222083001,Li4V2Cr3Fe3O16
mp-714944,-2.347089552,VO2
mp-867790,-2.263634659,Ba5Ru2O11
mp-552185,-0.774781046,AgNO3
mp-765238,-3.135531567,Li4V3OF11
mp-1812,0.016275493,Hg5Au6
mp-7030,-0.731104346,LaSiNi
mp-781495,-1.433510639,Na2Co2O3
mp-9854,-0.540823123,YP5
mp-777781,-2.913079239,Li2FeF4
mp-17829,-2.90086119,Sr3SmRhO6
mp-15316,-3.993720675,SrMgF4
mp-18735,-2.887940666,Ba2Co(BO2)6
mp-974464,0.39484021,ReH3
mp-607169,-0.728504832,Eu(GePt)2
mp-541550,-3.113499553,Mg16Si8HO32
mp-10736,-0.396256799,Ba3N
mp-30788,0.06722275,SnMo3
mp-20635,-0.417246281,TbIn5Rh
mp-10748,-0.952398075,TaCu3S4
mp-21493,-0.300106265,U2Ga8Ru
mp-561249,-3.024285433,Ba17Er16Zn8Pt4O57
mp-6916,-0.429089165,Sm(BC)2
mp-754717,-0.85165098,RbBrO4
mp-699399,-1.1075002,K2BaNi(NO2)6
mp-11558,-0.226580696,Sc5Re24
mp-780320,-2.411243343,LiMn3(BO3)3
mp-569538,-0.652438266,LaNiSb3
mp-770493,-2.14192334,Li5V2Fe5O12
mp-555940,-2.216086197,Dy2Te5O13
mp-5889,-3.801051817,Er2Ti2O7
mp-18922,-1.953501455,Mn5O8
mp-764744,-3.053775512,V2OF5
mp-642535,-0.821472707,Cs4Sb14S23
mp-755419,-1.194400752,Bi2TeO2
mp-676778,-2.767344095,KBiF4
mp-997617,-0.239586571,BOs
mp-677714,-2.710446064,K2YbSn(PO4)3
mp-780879,-2.441135202,LiMn3P3(HO6)2
mp-27192,-3.491037199,CsBe2F5
mp-568923,-1.63779376,Ba2BN2Cl
mp-3747,-0.763114395,Ti3AlC2
mp-23503,-1.88605434,Na3InCl6
mp-763201,-2.75512916,V6O7F5
mp-23926,-1.612232631,K2HgH2Cl4O
mp-2406,-0.481175936,Mg5Pd2
mp-1018155,0.823497408,MnSn
mp-8670,-1.08702009,Ca3CrN3
mp-982188,0.000207368,Y(Mn2Fe)4
mp-30276,-1.005382785,Ce10Ga5Cl4
mp-29006,-1.852849717,P2SO3
mp-699137,-1.556675302,Li4(CoO2)7
mp-642974,-1.932157945,SrCrBi12(Mo2O17)2
mp-621926,-2.933137826,Na2TiSiO5
mp-567787,-0.225697177,LiInAg2
mp-631366,0.898640689,TcSnSe
mp-21352,-0.282016507,NaIn2Au
mp-570713,-0.918209981,TiAlPt
mp-643263,-1.810427376,Na3VH6O7
mp-549737,-3.242004102,Ba2Ca(BO3)2
mp-763659,-2.227702549,Li3V2(FeO4)2
mp-557463,-3.042002393,Na3ScSi2O7
mp-773119,-2.008659237,Na2MnAsCO7
mp-773087,-2.674956024,Li2MgCu2(SiO3)4
mp-9964,-0.828593532,Ti3TlN
mp-17119,-1.857009263,SrCu3(SnO3)4
mp-974962,0.665822973,Rb3Ho
mp-558054,-3.23279053,SrLi2Ta2O7
mp-18468,-0.175699391,Mn5SiC
mp-540772,-0.772624642,Er2Ni12P7
mp-558336,-4.010581536,Ho2O3
mp-11734,-2.88864844,Sr2MgReO6
mp-974586,-0.204449132,Rb2MgH4
mp-649774,-0.673535429,CuSbPbS3
mp-999337,-0.915893977,NiHO2
mp-685043,-0.345138081,BBr
mp-18722,-1.89459347,Cs2LiMnO4
mp-21071,-2.95275517,Eu2SO2
mp-14561,-0.84071884,Ba(SiIr)2
mp-555939,-1.865079243,Li2Te2O5
mp-552454,-2.723828505,SrTaNO2
mp-18961,-3.136905489,ScCrO3
mp-755609,-3.325474293,Y2SeO2
mp-1019573,-3.448326276,CaAl2SiO6
mp-780149,-2.469856515,Li2Mn3(BO3)3
mp-754534,-3.015413778,Li2CeO3
mp-760230,-2.360783247,Bi5O4F7
mp-542180,-1.024534701,Th(TeI)2
mp-15186,-2.10455576,Er(CuO2)2
mp-975336,-0.634897358,KCSN
mp-862669,-0.399591616,BeFe2Si
mp-755635,-2.489081005,Ho2Pt2O7
mp-765719,-2.860906447,Mn6OF11
mp-12671,-3.655581364,Er2SO2
mp-758151,-2.824298142,Li3Ti(PO4)2
mp-558725,-2.413203822,Ba5Ru2Br2O9
mp-559550,-3.281195053,SiO2
mp-556541,-0.868761224,InSb2S4Cl
mp-962,-0.370670971,SmZn2
mp-14280,-0.956197807,Ga2Sn2S5
mp-30358,-0.324884904,TbAg2
mp-631510,0.846336121,HfBe2Bi
mp-975140,-0.291456942,RbZn4P3
mp-694541,-2.39975328,FePO4
mp-559066,-3.148303213,Ba3Y(BO2)9
mp-770408,-2.510140733,Rb6Ti2O7
mp-6856,-2.712753338,Be3Zn4Si3SO12
mp-21244,-0.323847798,Cr3RhN
mp-10771,-1.83023189,Dy4(SiS4)3
mp-557940,-2.567785899,KNd(CO3)2
mp-571172,0.075716851,In2Bi
mp-555568,-2.967146952,K2Zn(Si2O5)2
mp-27719,-2.671201557,Al2CuO4
mp-23626,-1.410958071,RbLi2(IO3)3
mp-771083,-2.157118399,Li6Fe2P(CO4)4
mp-19374,-1.307826769,K2SrNi(NO2)6
mp-625541,-1.547949861,Sn3(HO2)2
mp-14753,-0.935104145,Li7TaN4
mp-865255,-0.435000517,LuNbRu2
mp-770718,-1.375075106,Mg(IO3)2
mp-19732,-1.116392776,Cs2CuPb(NO2)6
mp-567130,-1.051021801,Nd(SiIr)2
mp-867917,-0.378926986,CuGeRh2
mp-558650,-2.498691028,UCu2(PO5)2
mp-669388,-2.615360322,Gd2Se2O
mp-7446,-1.170034775,Rb2S3
mp-777622,-2.866612677,LiFeF3
mp-865983,-0.333368081,TmCdHg2
mp-29034,-0.209538908,Tl2GeTe3
mp-779773,-2.007988682,Na5GdO4
mp-621938,-0.925516713,Cs3Cr2I9
mp-780483,-2.47011693,Li2MnFe(BO3)2
mp-680240,-1.857409164,Sb2Cl5F4
mp-31470,-0.176358504,Na4TlAu
mp-30836,-0.485737753,TaPd3
mp-18909,-2.463870204,BaNi2(PO4)2
mp-21242,-0.478060847,LiYbPb
mp-1009,-0.083360086,SrSi6
mp-15336,-2.572360304,Sc2Cu2O5
mp-770699,-1.820415779,KLiMnO2
mp-19519,-1.414273526,Ni3(AsO4)2
mp-758604,-2.161956151,LiAgF2
mp-777185,-2.697281691,Li4V2(PO4)3
mp-769242,-1.478554421,Li2Cu(HO)4
mp-686717,-0.242534761,Fe2NiSe4
mp-32398,-2.370436444,Li3Ni(PO4)2
mp-14651,-3.150836445,Zr2AgPdF11
mp-569818,-0.8302036,Er3Si3Ni
mp-977187,-0.282852281,La2MgTl
mp-581586,-0.626559439,Tl8Sb21As19(PbS17)4
mp-778884,-2.364336409,LiFeBO3
mp-22483,-0.565732479,NaInTe2
mp-15379,-2.691830344,K2SiO3
mp-29871,-1.700590791,Na4SeO5
mp-505064,-0.811745556,Nb2P
mp-9365,-2.175164915,RbTbS2
mp-973198,0.027802145,Na
mp-20948,-0.728944976,NbNiP2
mp-21819,-0.48415754,U2Cr30P19
mp-29080,-1.697803581,Na3YBr6
mp-17698,-0.971248739,K6CdTe4
mp-1553,-0.334881849,HoNi5
mp-704962,-2.509226214,Li3Mn3(PO4)4
mp-10080,-2.979602543,PrGeBO5
mp-775239,-2.496696282,Li4Mn3Fe(BO3)4
mp-574430,-1.198266364,BaUI6
mp-570615,-1.868080099,BaThBr6
mp-770651,-2.047704812,Li10Fe9CoO20
mp-1585,-0.194464018,V3Co
mp-568177,-0.429072867,CaAlSiH
mp-18163,-0.506944732,Cd4GeSe6
mp-12488,-1.072702125,CsErCdTe3
mp-21162,-0.370300975,SrPb3
mp-28185,-2.62159977,TaClF8
mp-866685,-0.47816103,Er2(Ga3Co)3
mp-557516,-2.829901841,K2Be2Zn2Si3O11
mp-568428,-0.44850431,KNa(BH4)2
mp-11299,0.00955682,Cd2Hg
mp-769518,-2.262876545,Na3Mn2P2(CO7)2
mp-767641,-3.139170835,LiV2F7
mp-768810,-2.284241349,Sr4Br6O
mp-631482,0.543221925,BiMoRh
mp-541093,-2.569342769,Nb2Hg3S(O2F5)2
mp-867121,-0.661809385,LiY2Pt
mp-770522,-2.70570574,Li2AlVO4
mp-10621,-1.040544793,RbSbS2
mp-561458,-2.917946177,Na4Sc2(PO4)3
mp-7107,-1.013076611,Er(SiPt)2
mp-721161,-1.601274958,MgPH16NO10
mp-557484,-0.649806609,BiS4N3Cl4