id,formation_energy_per_atom,pretty_formula
mp-4236,-2.376916117,BaZnO2
mp-631293,0.761124012,HgP2Se
mp-17103,-3.439758625,Sr3Ta6(Si2O13)2
mp-13861,-0.52317767,HfB4Ir3
mp-865500,-3.185575186,Na2Hf2O5
mp-972185,0.021067648,Tl3Hg
mp-39,0,Tl
mp-998604,-1.850297964,RbPbCl3
mp-757101,-2.795747035,Li2Cu(Si2O5)2
mp-557180,-1.953805686,CaAs2(XeF5)4
mp-1019738,-3.096610783,BaEu2O4
mp-861884,-0.941730822,AcGaTe2
mp-22361,-0.578007606,CeReB4
mp-12006,-0.348225974,CeCdNi4
mp-980392,-0.445449656,TmScHg2
mp-867281,-0.268736421,Tc3Pt
mp-673144,-2.39637547,LiSnP2O7
mp-11085,-0.709637522,YbCdAu
mp-14481,-0.58611827,Er(BRh)4
mp-4353,-0.553239046,TbAl4Ni
mp-757142,-2.577747512,LiNb(PO3)4
mp-764554,-2.379667451,Li5Fe8(BO3)8
mp-565590,-0.537800329,Cu4GeS4
mp-976952,-2.922648792,NaPuO3
mp-560847,-1.068755354,Nb2TlPS10
mp-765227,-2.479418383,Li6Sn5(P2O7)4
mp-28104,-0.371227776,Fe2MoP12
mp-707068,-1.606433587,KH8O4F
mp-22561,-0.229808698,Pr2ReC2
mp-761078,-3.170797304,Na9Ti20O40
mp-767262,-2.419890747,Li12Mn3FeP4(CO7)4
mp-568661,-0.573232044,Cd(InSe2)2
mp-18209,-0.405922816,Pr2(ZnGe2)3
mp-23215,-2.630011389,ThCl4
mp-34486,-2.202003355,Pr5AgS8
mp-581471,-0.461195154,Nd(CoB)4
mp-10560,-3.096374138,Sm3AuO6
mp-770866,-2.040616278,LiMn5O8
mp-559234,-2.962564651,CsLa(PO3)4
mp-771830,-1.540145621,Sr2YI7
mp-971632,-0.239625229,GaP
mp-772578,-2.116392712,Li2Mn3SnO8
mp-772820,-3.853469217,SrLu2O4
mp-561437,-3.192889297,Al2Ge(O2F)2
mp-977443,-0.600538411,ZrGeRu2
mp-645166,-0.294548805,Tb(GaFe)6
mp-27994,-0.411655817,HgBrO3
mp-505392,-2.839854399,Ba3V4O13
mp-644285,-2.245236883,KAlH2CO5
mp-11294,-0.314692637,DyCd2
mp-555164,-3.33114505,Ca5P3ClO12
mp-554973,-1.910633638,TlCuF3
mp-676725,-3.627717374,Lu3NbO7
mp-865047,-0.593697577,Mg2AlB2Ir5
mp-6040,-3.137047442,BaBPO5
mp-760599,-2.724183493,TiSn(PO4)2
mp-23397,-1.20048625,MoPCl9
mp-981366,0.664156956,Zn3N
mp-865160,-0.327025684,MgGeIr2
mp-622640,-2.378880166,V3O7
mp-16594,-3.098089938,K3TbSi2O7
mp-36592,-1.684225793,Nd5AgSe8
mp-780522,-2.037999722,LiVP3H8O13
mp-582389,-0.393237184,Eu2B5Os3
mp-675328,-1.972681376,Ce4GeS3
mp-558039,-3.142495218,Sr2HoSbO6
mp-765567,-2.614492383,Li4P5HO15
mp-849223,-1.82163369,LiNb(TeO4)3
mp-18991,-1.103675219,Ba(NiO2)4
mp-30026,-2.274660556,Sr3Te4O11
mp-559620,-1.835453523,Cu5Bi2(B2O7)2
mp-637771,-0.366708721,ZrInNi4
mp-772666,-1.843967116,Li2Cr2O7
mp-6015,-2.13548226,LiSiNO
mp-1092,-0.480412182,HoHg
mp-23011,-1.270776262,RbClO3
mp-568077,-0.189569012,TaFe2
mp-510422,-0.452580489,SiNi2P
mp-2987,-0.192469733,Li2MgTl
mp-614572,-0.958080894,Ca3InP3
mp-12855,-0.244984486,Cu2HgGeSe4
mp-12181,-1.625927808,BaSnS2
mp-4280,-1.689714949,GaCuO2
mp-771253,-3.785613247,Sm2Zr2O7
mp-561126,-1.828426933,Nd3Si2S8I
mp-634977,-1.675238063,Cs3Fe2Cl9
mp-697744,-2.538176635,LiMnP2O7
mp-780724,-2.465394785,LiSbP2O7
mp-670,-0.137444532,NbCo2
mp-850993,-2.538307514,LiMn4(PO4)3
mp-980190,0.086504625,LiYb3
mp-20793,-0.902496872,Ga2FeS4
mp-23285,-0.782108192,CeBi
mp-6778,-1.279310786,BaYbSi4N7
mp-773190,-2.251871941,Na2VBAsO7
mp-672958,-2.522233157,LiSb(PO3)4
mp-778800,-2.991913415,LiMnF3
mp-675324,-2.633772159,BaCO3
mp-541047,-0.803693905,ZrAlPd2
mp-19146,-1.752860065,CrPbO4
mp-849541,-3.074959363,Li2V2F7
mp-560585,-2.264206374,P3IrO9
mp-2956,-0.667637166,Co2(GeS)3
mp-23143,-2.412463332,Ca2Cu(ClO)2
mp-30275,-0.311291352,BaP8
mp-703591,-2.82323602,Ba5B20(H2O19)2
mp-2749,-0.199333607,TiBe2
mp-684525,0.016323739,Cu2Se
mp-696867,-1.225489595,V4NiS8
mp-1006371,-1.768892495,CePS
mp-29516,-0.521658557,Bi7RhBr8
mp-28413,-0.265371225,Na2(GaSb)3
mp-20803,-0.50075323,USbAs
mp-770662,-1.205953124,CdCoO3
mp-865470,-0.337125572,Ac2CuSn
mp-12574,-0.278933873,Dy2C
mp-556014,-2.624170834,Li3Ga(BO3)2
mp-864879,-0.974905703,NbC2NCl8
mp-505814,-3.15066276,CsBa2Nb3O10
mp-769596,-2.447582861,Li3V3CrO8
mp-30218,-1.06254341,Ti2P
mp-8654,-0.768253903,PrSiRu
mp-504498,-0.182723773,K2CdPb
mp-754943,-2.836837919,ErBiO3
mp-1008702,0.537011621,Ti2In
mp-556908,-2.882739775,Nd5As4(ClO4)3
mp-28365,-1.326949063,Na3AuO2
mp-759924,-1.739153207,Bi14SO24
mp-983410,-0.589648675,Ho2CuPd
mp-27893,-0.316474923,B5H9N
mp-29674,-0.47933144,Al2B2Ru3
mp-864925,-0.332868442,NdMgZn2
mp-18421,-1.759825443,Ba2Ga2S5
mp-735535,-1.494117135,NiPH6NO5
mp-34857,-1.399001912,KNO2
mp-28108,-0.691400129,Na4SnTe4
mp-705472,-0.29191886,AsS
mp-768889,-3.934460697,YHoO3
mp-776669,-1.559729271,Na7Co3O8
mp-558381,-0.546994256,PtCI2O
mp-780854,-1.638657727,Fe4O7F
mp-570135,-0.336163695,SnHg7(P2Br3)2
mp-20129,-3.144971369,BaTbO3
mp-755586,-3.055845254,NaLaO2
mp-30473,-0.512028275,Ca3Ga5
mp-561089,-2.507725053,Ba3LaIr2O9
mp-558071,-1.21932065,RbS
mp-972337,-0.505472103,Ti2IrW
mp-770806,-3.844689955,Sm2TiO5
mp-1561,-1.771924894,TbSe
mp-763292,-2.441450306,Ti3Mn3(SbO8)2
mp-756422,-2.581144825,Li4CuSi2O7
mp-554267,-3.273164517,SiO2
mp-29524,-1.696713233,K3BiO3
mp-669508,-1.386516519,TaP2NCl12
mp-570390,-0.525319889,Ba5Al2Ge7
mp-1584,-0.607539165,YbIr2
mp-2033,-0.063801046,Ni3N
mp-625256,-1.065438954,H5IO6
mp-11019,-1.689677302,GaCuO2
mp-27197,-2.027719883,Na4As2O7
mp-755000,-2.943274201,LiTiO2
mp-573755,-0.712330054,CsTeAu
mp-38407,-0.523683601,Li5SiAs3
mp-5929,-0.405249265,Na5SiP3
mp-15543,-3.262492912,NaLiZr(Si2O5)3
mp-9675,-0.388121775,Cs3BP2
mp-10547,-1.063154474,RbAuO
mp-769871,-1.909803733,Li2CrFe3O8
mp-769359,-2.545824434,Y2Bi2O7
mp-18952,-2.819600981,Ca4Mn2O7
mp-556786,-2.463110053,LiCdPO4
mp-5173,-0.577507556,Ce(SiAu)2
mp-504815,-0.136629326,Re5(NiAs6)2
mp-16370,-0.584383023,Th2Ge
mp-675134,-3.351102851,Sr5Ti5O13
mp-743697,-2.162416449,MgZr3Tl10(MoO4)12
mp-752713,-3.581245821,HoBO3
mp-559692,-2.809780474,Ta2Cd(P2O7)3
mp-625873,-1.476611086,Ba(HO2)2
mp-977392,-0.307085278,Ho2MgIn
mp-4984,-0.396408434,SiB2Mo5
mp-5309,-2.087559348,KAuF4
mp-972912,0.016440683,La3Er
mp-17524,-0.05296615,GeAs2
mp-771139,-2.354495138,Cs4HfO4
mp-961712,-0.04514861,TaTlPt
mp-29850,-2.046303448,Na3TiCl6
mp-639719,-1.536625576,Cu3Mo2O9
mp-9382,-1.476906526,SrZrN2
mp-2488,-0.36844345,SiOs
mp-704461,-2.467850237,Ba3La7Mn(Co3O10)3
mp-2367,-0.161703585,LaC2
mp-19424,-2.663344859,TiCoO3
mp-3622,-2.377766169,Na2PdF4
mp-16998,-2.866881771,Ba2Nb6Te2O21
mp-569580,-1.651881092,NaLa4I7N2
mp-557256,-2.577021922,RbP3PbO9
mp-553958,-2.364137007,Zn3(PO4)2
mp-6647,-1.550096847,BaYAgSe3
mp-8236,-0.796760161,Ba(PPd)2
mp-3432,-0.900318965,ScNiSb
mp-28439,-4.079400193,KSc2F7
mp-11539,-0.852934134,SmAl3Pd2
mp-1017446,-2.700280668,HfCdO3
mp-28683,-1.144103222,Ta(ICl)2
mp-12537,-0.758147392,Ti2GaC
mp-1019888,-0.630650038,KNa2BN2
mp-10456,-1.110090322,HfSiPt
mp-774105,-2.931073475,Ca5Ge3O11
mp-756286,-3.888518469,La3Ce4O12
mp-531238,-2.032052211,Cd(GaO2)2
mp-554023,-3.199966976,Be2BO3F
mp-867285,-0.551932555,LiTb2Ir
mp-1018050,-0.014537134,CrC
mp-759435,-2.410942751,LiCu(PO3)3
mp-558571,-2.147307374,Sc2Te5O13
mp-763698,-2.481248688,Li4Nb3V3(CoO8)2
mp-17853,-3.153310973,YGaO3
mp-557952,-2.630415723,RbInP2O7
mp-769478,-2.767033858,Li4Ti4V4CoO18
mp-667323,-1.279698969,Mg(GaS2)2
mp-38870,-1.849768279,Ca(Ce2Se3)4
mp-558057,-2.510332454,LiCdCoF6
mp-866015,-0.300274443,CaPrZn2
mp-7891,-0.609073862,Mg3As2
mp-770681,-2.232961654,LiCr10O15
mp-555108,-1.080546028,PH9C(NO)4
mp-10299,-2.692766883,Ca4PdO6
mp-1787,-0.117680152,NdMg3
mp-1007664,-0.455759441,InPd3
mp-10105,-0.652712933,UTeAs
mp-676076,-0.468395999,Cu11Sb4S13
mp-542426,-0.37259623,CuHgSI
mp-1017591,-2.136410287,BaRuO3
mp-542831,-3.752489865,Gd2SiO5
mp-752927,-2.175122386,LiAgF2
mp-975199,0.142306875,RbSr3
mp-561108,-1.489381382,Y(IO3)3
mp-768539,-2.209205449,AlTlO3
mp-15987,-0.50040081,Hf3(Cu2Si)2
mp-628631,-2.263593048,GdBi2IO4
mp-560458,-3.314533265,Rb2U2O7
mp-1019528,-3.071108587,Ba2Mg(BO2)6
mp-766504,-2.154531767,Te2(PO4)3
mp-555156,-3.010605479,MnCrF5
mp-768695,-3.815819673,Ho2Ti2O7
mp-28107,-0.5795958,Na4Ge2Te5
mp-374,-0.341065721,CrB2
mp-6841,-2.474934093,Ba4NaCu(CO5)2
mp-989179,-0.896680516,Mo4HS8
mp-542779,-0.306655103,GdAg
mp-669455,-0.544241,Ga4Hg11(AsBr4)4
mp-567203,-0.707555593,La(SiOs)2
mp-530146,-3.378784613,MgAl2O4
mp-505222,-0.795935029,CdInBr3
mp-10991,-0.824479535,YCuAs2
mp-549589,-2.074905352,LaZnAsO
mp-11517,-0.12945721,NbRu3
mp-13001,-3.612217971,Ba2HoTaO6
mp-996986,-1.413725589,LiCuO2
mp-8416,-3.755812609,BaCaGaF7
mp-677370,-3.061803916,UP2O7
mp-18718,-1.130307053,Ca(NiO2)4
mp-19175,-1.509960455,MnSe2O5
mp-973788,-0.11802189,Ho2CuTc
mp-977398,-0.290903895,TbCdAg2
mp-16956,-3.093050725,Na3Sc2(PO4)3
mp-556458,-2.692768933,BaCa(CO3)2
mp-318,-0.260719192,SrIr2
mp-686617,-2.257880011,Nd10Si10N17ClO9
mp-504752,-2.126169301,Fe3BO5
mp-29007,-1.791806753,P4(SO2)3
mp-864795,-0.548719535,Ac2SnHg
mp-567490,-0.259286536,Hf5Re24
mp-619032,-0.073333016,PbCN2
mp-631506,1.076688393,SrZrCo
mp-775006,-1.822144743,Mn2CrO6
mp-864886,-0.648301147,Dy2NiIr
mp-669474,-2.006214528,RbTeNO3F4
mp-555514,-2.023656071,OsOF5
mp-760650,-2.565075325,Li3Bi(PO4)2
mp-642824,-2.211808431,SF6
mp-6997,-0.061505754,Sb2Te
mp-30799,-0.649136431,NdTlPd
mp-568284,-1.714507876,SrI2
mp-754172,-2.829004431,La3Ti2N3O4
mp-776235,-2.265207664,Zr2N2O
mp-559219,-2.866920804,Zr(PO3)4
mp-20273,-1.708662427,Ca3PbO
mp-976187,-0.391874317,Pr(Al2Fe)4
mp-5838,-1.991835727,Ba2SiS4
mp-865026,-0.509843759,Mn2VSi
mp-764514,-2.359250503,LiFe2(BO3)2
mp-7364,-0.480311617,Ca(SiAu)2
mp-17848,-0.427911955,Nb3Si
mp-19212,-2.253936534,Rb2MoO4
mp-9225,-1.195442084,ScSiPt
mp-622000,-1.949709704,Cs3Sb2N3(O3F2)3
mp-973681,-1.910048183,LuRhO3
mp-569894,-1.745850452,La4B4Cl5
mp-9952,-0.493248491,Hf5ZnSb3
mp-4413,-1.10233113,Th(SiRh)2
mp-8346,-3.111040734,Lu2Ge2O7
mp-24645,-2.327217589,Er(HO)3
mp-2152,-0.319774058,YNi5
mp-865797,-0.319203334,LuCo2Sn
mp-23517,-1.006712972,RbPbI3
mp-554200,-2.077518297,Sr2YCu3(PbO4)2
mp-654301,-2.882953631,Nb5P7O30
mp-721246,-0.866820415,Sr6CoC2N7
mp-28366,-0.582663745,Gd2B5
mp-642644,-0.191592723,V2H
mp-23771,-1.80538835,SmH3(CO2)3
mp-694534,-2.454474387,LiFeP2O7
mp-867124,-0.486181565,La2ZnIr
mp-755183,-2.731459502,DyTlO2
mp-7716,-0.100554262,SbTe
mp-759734,-2.479069941,Li3Bi2(PO4)3
mp-865142,-0.3337679,DyMgZn2
mp-757808,-2.379940393,Sb(PO3)4
mp-13673,-0.267073766,NaSiAu3
mp-31940,-2.630604912,LiMnPO4
mp-849466,-1.959055349,Mn3O5F
mp-504576,-2.025216076,OsOF5
mp-863430,-1.862941254,Zn3In2O6
mp-19383,-3.015597484,Ti4Mn(PO4)6
mp-974387,-0.36990222,Nd2AgHg
mp-31418,-2.334661162,La(SbO3)3
mp-8628,-0.379976093,Te4Pt3
mp-9872,-0.374607217,K4BeP2
mp-17088,-1.567410046,KBaPS4
mp-560964,-1.291027062,K3Sm(AsS4)2
mp-2056,-0.266526023,Ni3Se2
mp-31423,-0.639994908,Ho3(CuSi)4
mp-19727,-0.076534175,PbCN2
mp-708984,-1.466148281,NaH5CO4
mp-10781,-1.732792299,RbGdSe2
mp-771196,-1.904113781,Li8Mn12Ni4O31
mp-699346,-2.449915028,LiCo2(PO3)5
mp-721415,-1.001057073,CuH12N2(Cl2O)2
mp-24239,-0.444268272,K(BH)6
mp-19992,-3.963492557,La6UO12
mp-29877,-0.375070392,K2ReH9
mp-673848,-3.91924232,Ce2Dy2O7
mp-25262,-3.344474536,TiO2
mp-29775,-2.600778895,Sr4PdO6
mp-867180,-2.425259287,Pm2S3
mp-776057,-2.328081793,TiCr2Ni3(PO4)6
mp-695946,-0.540898335,NiH16C4S4(N4Cl)2
mp-752699,-2.09787052,LiAgF3
mp-2837,-0.009194706,PrCo5
mp-782720,-2.646596867,LiTiV3O8
mp-1020724,-2.873487201,Na7Al4P9O32
mp-850103,-2.312403988,Li4V5(FeO6)2
mp-303,-0.2142946,BaZn5
mp-774185,-2.854371531,Mn6OF11
mp-631548,0.625537621,Tl2SiNi
mp-11466,-0.227181115,NaHg2
mp-780849,-2.015554132,LiMn2Cr2O8
mp-12761,-0.138923453,BeAu2
mp-680189,-0.90937042,Y21B7(C7I9)2
mp-768121,-2.121761668,NaSbPCO7
mp-744574,-1.3403221,CoH6(SeO4)2
mp-1007657,-0.2139984,HfRu3
mp-971694,-3.55E-05,Ge3N2
mp-555893,-1.941384461,Pr3CuSiS7
mp-10802,-0.409538985,RbAs
mp-770383,-2.206973815,Li2Cr2(SO4)3
mp-6036,-1.488073271,CaCu3(RuO3)4
mp-2165,-0.323485844,SmZn
mp-556676,-2.328597918,Na3Al2(AsO4)3
mp-571203,-0.617795686,Sr(CoAs)2
mp-20886,-0.508461306,CeZnSn
mp-976410,0.359880097,Nd3Cr
mp-626550,-2.954336612,Ti3H2O7
mp-631338,1.123515738,LiZrSc
mp-978303,0.415234661,Mg3Re
mp-643346,-2.531146525,Al2Ge(HO3)2
mp-19270,-2.795367945,TiFeO3
mp-1005727,0.695258273,TmNp3
mp-22457,-2.373029199,K3Na(SO4)2
mp-570324,-1.055013891,Rb2TeBr6
mp-1056,-4.006955044,Tb2O3
mp-865904,-0.650725791,BeSiIr2
mp-1018162,-0.920776502,CeBiPt
mp-6433,-2.938074263,KNd(PO3)4
mp-4396,-1.691335796,Ba(NO3)2
mp-755831,-0.26247262,BrClO
mp-557249,-1.260801211,K2UCu3S5
mp-568880,-0.815840278,YInPd2
mp-769380,-2.666664983,Li2TiSn3(PO4)6
mp-849695,-1.859664148,Li2FeO3
mp-21164,-0.902639111,SrGePt
mp-755752,-2.384506805,Rb2Be2O3
mp-636461,-2.023895974,Ga2Ge4Pb3O14
mp-572596,-0.906994716,TlIn3S5
mp-989388,-1.356796545,Rb2SCl6F
mp-555814,-1.828051004,Sr2Cu2Te(BrO3)2
mp-504667,-2.150985516,RbIn(WO4)2
mp-570845,-0.376290273,Zn(GaNi)3
mp-762222,-2.567474965,Li2CuF4
mp-31909,-2.773021434,Ta2Mn3O8
mp-631451,0.776139375,Ta2CdBi
mp-22154,-0.226091802,In2Au
mp-29525,-1.618225441,Rb3BiO3
mp-978852,-0.488137586,SrGaSnH
mp-763763,-1.842068959,Li4Cr3Fe2Co3O16
mp-9069,-0.569234448,K2NaAlAs2
mp-771816,-3.703734434,Gd3NbO7
mp-28569,-1.08083926,NaInBr4
mp-676269,-1.492451093,Yb2FeS4
mp-19227,-3.033517842,YMnO3
mp-756093,-1.565173549,Na12NbO7
mp-753671,-1.498982561,PNO
mp-762413,-2.606256969,Li3CrSiO5
mp-764233,-1.527830298,Na8CoO6
mp-19931,-3.595065129,Na2MgAlF7
mp-777918,-1.936681004,Cr3Sb5O16
mp-6738,-3.292157965,Al6B5(O5F)3
mp-628647,-0.682794696,TlHg3As2Cl3
mp-754696,-3.503729278,PrTiO3
mp-505822,-0.819836057,TiSiRu
mp-27595,-2.806513623,K2ReF8
mp-555576,-2.234554119,KNaS2O7
mp-624474,-0.782872715,Ru(SCl3)4
mp-775511,-2.203291896,KLi(WO3)6
mp-561502,-1.378674503,Ba8B5N10F
mp-757836,-1.776051967,BeH2SeO4
mp-672187,-0.780268984,Pr2Pd2Pb
mp-30325,-1.409586174,In2(Se2O5)3
mp-568397,-1.225519166,CuMo3Cl7
mp-754692,-1.957084904,Bi2BO5
mp-8686,-0.795069719,Na3AsSe3
mp-15269,-2.375865239,Sr3CdIrO6
mp-754645,-1.739716756,MgCl2O
mp-11464,-0.121130663,MgHg2
mp-15201,-3.737779839,Pr2Ti2O7
mp-766103,-2.447890209,Li7Zr3Nb(TeO6)4
mp-669540,-1.170475371,K2PtN4(ClO4)2
mp-569200,-0.352703279,Eu(Al2Fe)4
mp-30614,-0.159377573,ErZn12
mp-630976,-0.152984534,In3Ir
mp-8829,-0.574176215,CrGaSe3
mp-1013524,-0.433069022,Ca3N2
mp-25460,-2.221426868,Li3CuPCO7
mp-757333,-3.323692224,Al12PbO19
mp-557930,-3.257502748,SiO2
mp-976261,-0.244690764,NaCa2In
mp-865920,-0.336522839,YbPmZn2
mp-554603,-2.561167041,K5NaCe2(SO4)6
mp-697708,-0.848943994,Sm2Si5Ru3
mp-27984,-3.461566367,PrClO
mp-763339,-2.181579746,Fe7(SiO6)2
mp-849667,-1.698338197,Li4Co5O9F
mp-1009020,-0.377925959,KCuO
mp-707746,-2.68269283,CaAl2Si3H6O13
mp-579677,-0.260041831,ZnB3Ir4
mp-977585,-0.118380025,Zr3Tl
mp-556402,-1.131101414,CuAg5As3O11
mp-555023,-3.175949141,KCa4(BO3)3
mp-510579,-0.622845751,PrNiSnH
mp-777963,-1.33396711,Li3SbH18S4O9
mp-570443,-0.040841536,Tl2CN2
mp-558162,-2.896051738,RbP(OF)2
mp-976402,-1.646980312,NaZnAs(H2O3)2
mp-694884,-1.43901987,KFeH5(SO5)2
mp-29081,-2.068341089,P4SO7
mp-541108,-2.585307125,Cd2Si(P2O7)2
mp-29208,-0.527399759,Ca(MgBi)2
mp-37741,-2.03993414,Ba(LaSe2)2
mp-561619,-2.134981056,CsLuS2
mp-12059,-1.030775979,Sm(PRu)2
mp-768931,-2.407725331,Ga10Si2O19
mp-721294,-2.41241458,NaB5(H2O5)2
mp-31516,-2.013273901,Co(ReO4)2
mp-21871,-1.761267035,CeCrS3
mp-3688,-3.052527354,Er2Sn2O7
mp-1018023,0.233007421,Mn3Sn
mp-677705,-0.402546944,Ba24In19N11
mp-774048,-2.577431081,Fe4OF7
mp-28080,-0.527515099,K2SnTe5
mp-554824,-3.160399314,La3RuO7
mp-35031,-1.635018127,Pr5CuSe8
mp-560739,-1.971973108,K3Li3TeO6
mp-650960,-0.98901046,Hf(ClO4)4
mp-19039,-1.897118994,CdMoO4
mp-581862,-2.85185781,Cs2NaAl(PO4)2
mp-772588,-2.620715504,Li2V5B3O13
mp-743638,-3.015865723,Li6Ti8Ni(PO5)8
mp-617543,-1.276700369,Th(InBr3)2
mp-779891,-2.510221048,Li6Mn5Fe(BO3)6
mp-569600,-0.000541388,Ge3As4
mp-570159,-0.625863419,SmZnSn
mp-10408,-0.625025206,K2CN2
mp-975812,0.015771244,PrSm3
mp-1019516,-1.07379475,Ba4GaN3O
mp-705034,-1.622676372,CrPb5O8
mp-1019603,-2.906900538,Cs2BaP2O7
mp-765411,-2.620962267,Li3CrSiO5
mp-2524,-0.693732556,NdGa2
mp-9036,-1.409954155,KSmTe2
mp-771691,-0.790301713,CaPbI6
mp-6408,-0.781026776,ZnCu2GeS4
mp-4846,-0.271091177,MnSbRh
mp-760863,-3.163020445,Na4Ti7O16
mp-22250,-0.583950477,Mg2SiB2Ir5
mp-1418,-0.087713082,FeNi3
mp-9420,-2.091917178,Dy(CuO2)2
mp-19426,-2.734866944,CaWO4
mp-560891,-1.674651372,SnP2Cl8O3
mp-10342,-3.703823611,Tm6ReO12
mp-1008728,0.09783939,Ni
mp-8627,-3.508719368,SmBO3
mp-850989,-2.662391059,V2(OF)3
mp-752674,-4.375687945,BaY3F11
mp-20924,-0.523860975,U(FeSi)2
mp-2121,-0.451289621,ScAl3
mp-773538,-2.239225451,CrFe3Cu2(PO4)6
mp-849990,-2.443094491,LiMn2(BO3)2
mp-6073,-3.277320598,Mg3Al2(SiO4)3
mp-775179,-2.182539594,MnCo3(PO4)4
mp-865183,-0.153614653,MgGaAg2
mp-556962,-1.851579005,Pr3CuGeS7
mp-781016,-1.99875237,Li14Fe4O13
mp-772422,-2.326053586,Na6Fe2B4PO16
mp-625915,-2.223643992,Ce(HO)3
mp-6693,-3.052114627,CaZn(SiO3)2
mp-510724,-1.649866991,As3Pb5ClO9
mp-865092,-0.331192003,MgGaNi2
mp-865186,-0.44787388,MgGaIr2
mp-697008,-1.326142626,CuH12N2(OF2)2
mp-676867,-4.135655415,Ca2HoF7
mp-559875,-1.852047214,K3Na2LiTeO6
mp-30975,-2.273746706,Na3BO3
mp-541335,-1.827979184,As2Se2S(NF6)2
mp-32565,-0.760110825,Tb4H9
mp-975780,-0.272643579,Li2TlSn
mp-560324,-1.967980138,Rb3Hg2S3ClO12
mp-24029,-1.371940784,Na2H10SO5
mp-756163,-0.732898687,Li2Cu4S3
mp-556480,-3.392492739,Ti3O5
mp-31109,-1.027955944,Ho12InPt7
mp-505113,-2.856389925,TiSn6F16
mp-754502,-3.207974568,SmYO2
mp-755613,-2.184793634,LiTiO4F3
mp-778827,-2.444005765,LiMn2(BO3)2
mp-558407,-0.854271312,In2Si(AgS3)2
mp-569862,-0.65461284,Rb4P2Se9
mp-675768,-3.772223012,Dy14Ti10O41
mp-11102,-0.660553489,YbInRh
mp-8742,-0.785160229,DyCoSi2
mp-761322,-2.113515674,LiNiBO3
mp-18285,-0.469281294,PrCo9Si4
mp-6169,-3.455488778,Ba3Ta6(Si2O13)2
mp-754727,-0.949927535,LiNiS2
mp-13206,-1.984008179,PrZnPO
mp-574338,-0.135809667,CsGa3
mp-568580,-0.183674937,Na10(Ga2Sn)3
mp-580324,-0.350831539,Ce4In8Ni7
mp-570469,-0.317051951,Pr5Tl3
mp-866046,-0.125776226,Ti3In
mp-1013738,-0.435773774,Ca3SbAs
mp-865848,-0.331109464,LuInAg2
mp-30540,-0.308861287,V(NiP4)4
mp-20763,-3.353079519,Na2Gd2Ti3O10
mp-707463,-0.359163119,KNaReH9
mp-570591,-1.510871505,CsHgCl3
mp-745139,-1.610845911,Na2Cr(HO)8
mp-867129,-1.534517384,RbZnH2Se2ClO6
mp-558717,-2.718799989,LiUAsO6
mp-14796,-0.647841222,KPt2Se3
mp-14292,-3.028580316,Ba2NdSbO6
mp-554868,-1.238899126,Al(MoS2)4
mp-762692,-1.82068276,Li5Fe11O16
mp-973877,-2.261930607,PaBO3
mp-542919,-2.499561581,NaGe2(PO4)3
mp-974747,0.097592396,MnCu3
mp-754004,-3.089576085,TmHO2
mp-553891,-2.395289632,Mg2BP3(H3O7)2
mp-1008226,0.261274806,CrFe2Sn
mp-770371,-2.505723493,Li4Ti3Mn2Fe3O16
mp-777531,-2.864634344,Ti3Nb2Cr3O16
mp-771397,-2.226081479,Li4Ti3Mn2Ni3O16
mp-982773,-0.063841883,Na3Tl
mp-569251,-0.64579532,Lu7Sb3
mp-556425,-2.680667699,SbF4
mp-31204,-0.439350272,Nd(SiAg)2
mp-27709,-0.494411295,Bi6Br7
mp-976412,-0.099511841,Li3Zn
mp-698068,-1.716720255,SnPH5NO4F
mp-972514,0.479053742,SmTa3
mp-554917,-2.55117166,LiSn2(PO4)3
mp-672394,-0.307417383,YbIn4Ni
mp-770870,-1.525390849,MnTlO3
mp-34009,-2.396096396,Ce(SmS2)2
mp-556163,-2.436255006,Zn2SiO4
mp-565597,-0.408048485,Cu3P4S4I3
mp-675668,-2.491325473,Yb(PrS2)2
mp-505145,-0.80160407,Ag3BiO3
mp-540554,-1.550122358,NaH5SO4
mp-570832,-0.538442927,SrPt5
mp-977182,0.751792471,NaNb3
mp-624691,-1.751489885,VAgO3
mp-21313,-0.112060772,Mn3GaC
mp-865247,0.063734587,GaFeIr2
mp-553918,-3.043142585,Eu2B5ClO9
mp-554408,-0.748192027,CsAgSb4S7
mp-571552,-0.577244636,Lu(CoGe)2
mp-5739,-1.8630505,U2SN2
mp-754929,-1.78026546,Ga3NO3
mp-12803,-4.440871291,BaEr2F8
mp-770865,-1.804956081,Mn3SnO8
mp-770649,-2.556467102,Li5NbO5
mp-674947,-2.351936651,Zr2N2O
mp-20220,-0.547742932,CaInRh
mp-18946,-2.736315387,VBO3
mp-698549,-2.538609542,Ca4Mn4O11
mp-10320,-2.968483871,La2MgRhO6
mp-552537,-2.335739625,Sr2CuBrO2
mp-600015,-3.277937868,SiO2
mp-20490,-0.625233757,NdNiSn
mp-554935,-2.098555045,Pr8Sb2S15
mp-38931,-2.385741603,Tb2SmS4
mp-778866,-2.498272637,Li4Mn3Fe(BO3)4
mp-1020009,-3.211305695,Li2Ca2Si2O7
mp-29364,-2.213402649,Li5SbO5
mp-558760,-2.180373171,SrZrS3
mp-775808,-2.982769437,MgO
mp-6766,-3.366975381,CaMg(SiO3)2
mp-555087,-3.146341429,Ba5Si(Cl3O2)2
mp-2605,-3.324886587,CaO
mp-2116,-0.186558888,ZrMn2
mp-20740,-0.329405263,Tl4Te3Pb
mp-676552,-4.265001314,Nd2Th8O19
mp-775155,-2.84138544,Li4FeOF5
mp-734561,-2.226653671,Rb3P3(HO3)4
mp-13327,-1.874694344,NdLuSe3
mp-768373,-2.070207215,Ba2YBr7