id,formation_energy_per_atom,pretty_formula
mp-22236,-0.011067912,In3Co
mp-771248,-2.149613138,Na2Ge2O5
mp-569161,-1.373522551,K2La6OsI12
mp-487,-0.360802534,MnP4
mp-1008376,-0.578495741,CeH3
mp-764587,-2.363465707,LiFe2(BO3)2
mp-757306,-2.349474639,LiCu(PO3)4
mp-10155,-0.71443356,P2Ir
mp-229,-0.68600341,ZrRh3
mp-1019280,-0.388337485,SrZnPb
mp-20355,-0.753440123,Ce2CoSi3
mp-1349,-0.859883275,SrPt2
mp-571376,-0.247213799,Dy4CdCo
mp-19884,-0.381339081,Mn3P
mp-571314,-1.724095222,K2CoCl4
mp-505538,-0.677919278,Ti3Al2NiC
mp-680148,-0.590387255,CdI2
mp-604147,-0.566190429,Na2Li(H2N)3
mp-18830,-2.283007883,Fe2PO5
mp-974368,0.047012018,Rh3Pb
mp-560939,-3.138347477,NaLaP2O7
mp-769553,-1.532383983,Li5Co2Ni3O10
mp-555743,-2.56448505,LiZnPO4
mp-23572,-0.905365377,KBiP2S7
mp-768345,-3.151744201,Ba2B2O5
mp-773102,-3.932032931,Ce4YO9
mp-18856,-2.028581023,MoO3
mp-28650,-1.492697591,CsBr2F
mp-973174,0.006071104,NaAg3
mp-620069,-1.739643849,K3Mo2Cl9
mp-762575,-1.878586635,Li2(FeO2)3
mp-767410,-1.95897418,Bi6P2O15
mp-600053,-3.272605006,SiO2
mp-571445,-1.342468601,HfHg3(SeCl3)2
mp-600001,-3.263812717,SiO2
mp-571493,-0.395211512,YbHgPb
mp-2917,-0.593624202,Dy(CuSi)2
mp-20917,-0.264944355,U2Fe3Ge
mp-19232,-2.087179569,K2CrO4
mp-850937,-2.996792359,VF4
mp-758498,-2.340009563,Li2CuSiO4
mp-769523,-2.265274168,Na3Mn2P2(CO7)2
mp-30741,-0.844146285,PaIr3
mp-20985,-1.206898205,TaPbS2
mp-641575,-0.09628201,Cr21(WC3)2
mp-573855,-0.233128645,La7Ni3
mp-677002,-1.98814508,SrZr12B2I5Cl23
mp-31339,-0.83192583,ScInPd2
mp-972069,-0.30629658,Ti3Ga
mp-977436,-0.671796118,ZrAlRu2
mp-4979,-1.143969753,AlCuS2
mp-555292,-2.073221985,PNF2
mp-8528,-1.113269552,Tm(SiRh)2
mp-779227,-2.934493847,Li24Ti11CrO36
mp-706629,-2.020970613,NaB2H5O6
mp-757507,-2.464022311,Sm3Bi5O12
mp-540855,-0.487168262,Rb6O
mp-29276,-2.477841418,Cd2P6O17
mp-778497,-2.023574005,Na6Bi2P(CO4)4
mp-19064,-2.395177277,Yb2Fe3O7
mp-760359,-3.33127907,NaTi6O12
mp-28261,-1.661778288,Na4SnO3
mp-676665,-3.296089279,Ba4Ta2TiZnO12
mp-752733,-2.674027586,TiGa2O5
mp-684713,-3.242873939,Al2O3
mp-707765,-1.307734244,TeH12(Cl2O3)2
mp-559355,-0.588273072,Hg3AsS4Cl
mp-754220,-2.110507249,Tm(CuO2)2
mp-18971,-1.207900068,Mn(PtO2)3
mp-762632,-2.553332278,LiFeSiO4
mp-643033,-1.905856317,KPH2SO3
mp-864973,-0.408049647,Dy2CdIn
mp-769007,-3.970175771,YScO3
mp-779434,-3.108619782,Li5La3Nb2O12
mp-861607,-3.132664794,KNaNdTaO5
mp-752418,-2.729635955,La2Se2O
mp-546862,-1.363274683,HgPb2(ClO)2
mp-20483,0,Pb
mp-542934,-0.14631217,CeMg2Cu9
mp-777476,-2.451664122,CrFe2(PO4)3
mp-19895,-0.198014713,NiSb2
mp-2454,-0.285626216,TiFe2
mp-560136,-2.017634266,Cu3B4Pb2O11
mp-673650,-1.743388808,Lu2Se3
mp-554155,-2.480371487,KSb(PO4)2
mp-631417,1.040507754,ReRuCl2
mp-570117,-1.376509791,ErTlSe2
mp-19474,-2.939844485,Ba2V2O7
mp-769348,-2.44869583,MgSnO3
mp-554121,-3.844994988,NaHf2VF11
mp-8836,-4.05600398,CaAlF5
mp-762282,-2.246546984,Li3Cr5O10
mp-867295,-0.261878175,LiCeTl2
mp-28833,-0.286304363,Er7Ru2C11
mp-11527,-0.208323804,Tm2Ni17
mp-16430,-0.593075681,Pr(FeP3)4
mp-973891,0.908359421,LaV
mp-655591,-0.172649962,LiB13C2
mp-34036,-2.008029785,NbBi3O7
mp-753176,-1.256225419,AgCO3
mp-504751,-1.685480186,AsHPbO4
mp-1243,-2.258172751,Ga2O3
mp-662529,-0.386935633,LaFe9Si4
mp-16809,-3.687689617,Ho2Si2O7
mp-21589,-0.390992628,Ga9Ni13
mp-12481,-1.398389362,LaPPt
mp-2151,-0.014189581,Mg17Al12
mp-761853,-1.384932274,Na3PH22(SO4)3
mp-554706,-1.891501995,AsSe(ClF2)3
mp-10287,-0.453510005,RbMnTe2
mp-9749,-3.142781563,Sr(BO2)2
mp-27424,-0.891655039,BaCu4S3
mp-849448,-1.613224176,Li2Fe2CuO6
mp-18048,-2.017327755,LiZnAsO4
mp-27485,-1.823197146,Tc2O7
mp-622116,-2.458589406,ReOF4
mp-681,-0.297806402,EuZn2
mp-541661,-3.176313777,LiZr2(PO4)3
mp-973986,0.003758195,Ho
mp-705558,-1.618512876,Fe7O9
mp-567719,-0.282371037,Pr10(B3C4)3
mp-628617,-2.288108652,Cs4K2Cu(SiO4)2
mp-776214,-2.545690387,Hf2N2O
mp-759735,-2.539500473,Li2Bi(PO3)5
mp-23643,-2.207893865,Cd5P3ClO12
mp-10247,-1.346345,U2CrN3
mp-621925,-0.843617826,Mn2GeS4
mp-3943,-3.529465178,BaTi2O5
mp-680180,-0.292856261,K3Co(CN)6
mp-23251,-1.765671874,KBr
mp-23533,-1.546098575,K2OsCl6
mp-9967,-0.764875751,NdSi
mp-557614,-2.44972984,Cd(PO3)2
mp-17118,-0.718571568,Y3Ge5
mp-707483,-2.387951342,TiP2H4O9
mp-28563,-0.632808606,CsAsSe2
mp-768337,-1.714172133,CuReO4
mp-2063,-3.728986575,Pr2O3
mp-542640,-0.475282542,GePt
mp-774994,-2.375633768,Li5Fe8(BO3)8
mp-554273,-3.129779783,AlPO4
mp-556137,-3.323260783,Li2Ca4Si4O13
mp-8432,-0.863065654,CaCuP
mp-680646,-0.23268773,NiSn
mp-757727,-2.60113296,BaB2H2O5
mp-30174,-0.166324353,Ca4Al51Cr7
mp-706243,-2.25484085,Al2Si3H8(NO5)2
mp-762880,-2.379759538,LiCoSiO4
mp-626103,-2.108507736,Al(HO)3
mp-28159,-1.685083988,As(BrF2)3
mp-558708,-2.687160144,Nd2Cu(GeO4)2
mp-974834,0.176731572,EuNi3
mp-998156,-1.740077157,RbSnCl3
mp-1495,-0.824521198,ErIr2
mp-780800,-2.129520634,Fe10O11F9
mp-4529,-2.391280009,K2SO4
mp-771398,-1.784592646,Li3Fe3CuO8
mp-19237,-2.781636528,Sr2MoO4
mp-607917,-0.457902874,La21Fe8Sn7C12
mp-16033,-3.209415851,Sm2TeO2
mp-705470,-2.482907562,Li3Mo4P5O24
mp-30751,-0.38575822,Al13Co4
mp-764715,-3.013280267,V2OF5
mp-662547,-0.964932015,PSeCl9
mp-28121,-3.325860359,La3ReO8
mp-7127,-3.304022602,Ba2YbTaO6
mp-555318,-2.754987142,K2Zn(SiO3)2
mp-672644,-1.451879863,KNO3
mp-1019784,-1.577783242,K2SN2O5
mp-542117,-1.400004611,Cd3Se3O10
mp-19198,-1.88309923,CoSO4
mp-13446,-0.497191111,Co2P
mp-770237,-2.199585651,LiMnPCO7
mp-569037,-0.464460131,Y3H2
mp-770846,-2.687394018,Ba3Sn2O7
mp-722455,-0.61374389,RbLi2(H2N)3
mp-559459,-1.293449165,CsInS2
mp-973024,0.193286237,La3Hf
mp-567305,-0.410815764,CeAl3
mp-1018892,-0.66616028,PrCoSi
mp-20669,-0.370269709,Ca2In
mp-34022,-2.689272935,Mg2SnO4
mp-3451,-1.769871951,BaVS3
mp-7818,-0.162819078,Pd4Se
mp-753958,-2.732214635,GdAsO4
mp-557437,-0.91195213,KBi(PS3)2
mp-21025,-2.47151184,Nd2Cu2O5
mp-695398,-1.372927295,Na3PH24SO15
mp-572291,-1.65472688,K3ClO
mp-568728,-0.780062396,Er2CoSi2
mp-975663,-0.444089034,Pr(CoB)4
mp-571068,-0.090402705,K3(Mg10In7)2
mp-14168,-3.055427211,K2GeF6
mp-771825,-3.883679348,Er2TiO5
mp-2028,-0.190523978,Be2Nb
mp-2965,-0.579613748,Ce(MnSi)2
mp-1194,-0.32322434,CdPt
mp-973343,-0.258209535,Li2MgHg
mp-612740,-0.521799613,In2Se3
mp-505343,-0.412616159,U(CoB)4
mp-6696,-2.989746607,K2Ti2(PO4)3
mp-10993,-0.804188856,ErCuAs2
mp-677337,-0.350252386,H12C4S3(N3Cl2)2
mp-759638,-4.071543646,Y5Tm11O24
mp-764845,-2.985671656,LiVOF3
mp-4199,-1.937552163,Na2S2O3
mp-18769,-3.236627124,CeVO3
mp-29394,-1.705192613,Gd2CCl2
mp-29975,-1.326165318,K3BS3
mp-753342,-2.15485869,LiCuF4
mp-4103,-2.592491642,Sr2Sb2O7
mp-981512,-1.214062667,YbLuPt2
mp-756339,-3.024608817,Tm2TeO6
mp-11444,-0.654938948,YGa2Ni
mp-865159,-0.376847324,Dy2AlZn
mp-20296,0.037580842,In2Co
mp-554278,-3.523379466,TiO2
mp-6599,-0.732001149,KNb(CuSe2)2
mp-5091,-0.426156397,Dy(Al2Fe)4
mp-34291,-3.77996289,Zr3InF15
mp-12962,-0.522218143,Zr6FeSb2
mp-568828,-0.383318954,Hg6BiSb4Br7
mp-554359,-2.891507648,Cs2Si3SnO9
mp-985594,-1.487328528,NaAg(CO2)2
mp-861947,-0.302360804,LiPm2Ga
mp-12695,-0.169200953,CaMg2Ni9
mp-1966,0.016567275,Cu3As
mp-4007,-0.811597974,Nd(SiNi)2
mp-3569,-0.16268581,Nd(Sb3Os)4
mp-567539,-0.130904953,MgGa2
mp-15974,-1.071462254,Mn(CrS2)2
mp-971712,-1.03872793,ZnCdS2
mp-28692,-2.293822284,Cs2CuF6
mp-752676,-2.389681403,TiBi2O5
mp-7368,-1.864053038,Dy2Se3
mp-561547,-3.427039505,SrSiO3
mp-20819,-0.913500507,ErGePd2
mp-22719,-2.171344876,Ba2NdCu3O7
mp-861894,-0.494361111,Li2LaSn
mp-571162,-0.906409278,Ca3(GaN2)2
mp-772131,-2.014514463,Li3Fe3SbO8
mp-10339,-3.195942716,SrNbO3
mp-14039,-2.655271383,K2NaRhF6
mp-13056,-3.526538092,Ba2LaTaO6
mp-1391,-0.86865895,Ag2F
mp-978281,-0.081239913,Mg3Ga
mp-9478,-3.309587314,BaSi4O9
mp-11347,-4.490923782,TbF3
mp-849394,-2.702764885,Li2MnSiO4
mp-778661,-1.648192967,LiCu5(PO4)2
mp-8154,-3.797170448,La2Ti2O7
mp-862964,-0.10340238,PmSmMg2
mp-12673,-3.67481183,Lu2SO2
mp-770696,-2.491535314,Mn7(PO4)6
mp-861993,-0.344211547,Ho2TlAg
mp-22801,-1.094592818,LuSiRh
mp-13282,-1.870994456,Sm(ErSe2)3
mp-754605,-3.402038199,LiLuO2
mp-753846,-2.533178116,Mg(GaO2)2
mp-867300,-3.148876557,Rb2Hf2O5
mp-16610,-0.074970266,Ge3Os2
mp-6134,-3.890960382,LiCaAlF6
mp-30085,-0.5431923,ThZr2H7
mp-1527,-0.265264893,TbCu2
mp-641565,-0.875101185,Er5Sb3
mp-989518,-1.209091265,Rb2SBrCl6
mp-22199,-1.035204985,KIn5S8
mp-32800,-2.560231838,Ac2S3
mp-770527,-1.911794821,Li2Mn4O9
mp-865531,-0.330795667,TiMn2Al
mp-4323,-0.943956695,Nd(SiPd)2
mp-756173,-1.33513667,Li5FeS4
mp-1365,-0.663635778,Ti6Ge5
mp-972965,-4.132574872,GdF3
mp-24507,-2.240816425,Na6Zn3P4H6O19
mp-555595,-1.658174128,KCu3S2ClO9
mp-12924,-1.86150347,KLaSiS4
mp-6032,-3.228418913,SrSi2(BO4)2
mp-989400,-3.087055895,Rb2NaGaF6
mp-861988,-0.364519995,PrAgHg2
mp-569606,-0.535406545,Nd3MnBi5
mp-975308,-2.319708203,RbGdO3
mp-627291,-1.831890106,V3(H3O5)2
mp-556602,-2.218007083,Ba3BiRu2O9
mp-568066,-0.875933903,Pr2CBr
mp-769399,-3.418649522,BaTa4O11
mp-862264,-0.296105644,Sc2ZnTc
mp-999052,-0.247557596,Ti2MnAl
mp-14384,-3.324209186,Ba3Ho(BO3)3
mp-984454,-0.820361849,KTlO3
mp-695582,-3.50063323,Na3Sr4La3Ti10O30
mp-540737,-2.130076093,ZrP2H4O9
mp-6695,-2.817500668,BaCdP2O7
mp-505381,-0.640295995,NaLi3(H2N)4
mp-631,-0.807846723,TiC
mp-557724,-2.544599275,KBiF6
mp-757383,-2.47942277,LiSiBiO4
mp-21767,-2.437524388,Si2Pb3O7
mp-19750,-3.028981739,BaGd2PtO5
mp-753437,-2.53028414,La5Cu5O13
mp-581229,-3.015052311,Gd2Ge2O7
mp-1007660,0.355608009,IrN
mp-3334,-3.055248787,Tm2Sn2O7
mp-865117,-0.21267915,NaErTl2
mp-772390,-2.357788579,LiAlFeO4
mp-20826,-0.062645888,CuTe
mp-5830,-1.130828787,Na3AsS3
mp-6491,-2.565348959,Na2ZnP2O7
mp-778325,-2.717251259,Li2TiV3O8
mp-752579,-3.936326983,Tm2TiO5
mp-24041,-2.183157487,MgH2SO5
mp-22372,-0.427168629,Mn6Ni16P7
mp-625112,-1.233848564,H8PtO6
mp-643579,-2.228354259,SbH3OF6
mp-1009128,0.243331599,MnN
mp-867137,-0.461833409,ScVRu2
mp-754008,-1.893738953,BaCuO2
mp-560476,-2.362295076,Rb3NaTiO4
mp-561355,-1.672851329,TiSCl6O
mp-569471,-0.404219852,UB2C
mp-510546,-2.477690663,Sr2CoMoO6
mp-9191,-0.628348461,Na3SbTe3
mp-541830,-0.514983778,UCo5Si3
mp-979940,0.356096662,Yb3Zr
mp-754937,-3.312720681,LiTi3O6
mp-684723,-2.376055302,TiNb2Zn(PbO3)4
mp-997047,-0.207382045,AgBrO2
mp-865091,-0.668439175,HfMnRh2
mp-644486,-0.291195075,KAlH4
mp-675693,-1.479745504,Na2CdO2
mp-764115,-2.279634154,V3O7
mp-753548,-2.478681578,Rb6Ti2O7
mp-773069,-3.517177018,ErTa3O9
mp-29269,-2.84965841,NaSbF4
mp-685272,-0.719846838,InSnBr3
mp-605873,-0.166146415,Pr4MgRu
mp-569196,-0.400855273,YNi3
mp-505589,-2.539945202,BaYFeCuO5
mp-758934,-0.41733539,Dy3Co29(Si2B5)2
mp-9249,-0.30138438,NaGeAu
mp-22515,-1.10811411,Rb2CuPb(NO2)6
mp-605485,-0.670211962,Fe2CuS3
mp-775265,-2.990904148,Li2Mn3F8
mp-559653,-2.704436453,SrCa(CO3)2
mp-974371,0.670865975,Rh3Br
mp-1651,-0.234994477,Th2Al
mp-642996,-0.486839684,Li4H6Os
mp-12612,-0.227298597,Ba3Ag2
mp-28667,-0.368053512,Ta(NiTe)2
mp-560711,-2.569740831,Sm10S14O
mp-776780,-2.676423611,Li4Ti3Cr3(SnO8)2
mp-5346,-0.545607936,Lu(CuSi)2
mp-672235,-0.75371427,Co(NiS2)2
mp-977200,1.076023197,Na3C
mp-753689,-2.601526319,Ba2Nb8O11
mp-643793,-1.561497265,Cu3H2(OF2)2
mp-19359,-1.933802768,NaFeO2
mp-865485,-0.303708959,V2CrOs
mp-571125,-0.964596555,Ce8Ni18P11
mp-22996,-0.32226207,SbSeI
mp-10555,-0.974339528,Ba2LiReN4
mp-19375,-1.897417887,CeCrSe2O
mp-570935,-1.23570751,LiI
mp-4410,-0.27474674,Yb(Al2Mo)2
mp-567313,0.001868297,Te
mp-976128,-0.013752034,Hf5Sc
mp-571464,-0.517476072,RbPSe3
mp-753654,-2.398880219,LiSnPO4
mp-27640,-1.047415353,Cd(IO3)2
mp-1019275,-0.568081907,TbCuSn
mp-766058,-1.744962235,Na(Fe2O3)4
mp-21113,-0.459159562,Y(FeGe)2
mp-979294,-1.412217203,SrAgO3
mp-769023,-2.67618273,Ba2Y7Cl25
mp-540431,-2.440584209,Li2Fe5(PO4)4
mp-777396,-2.050728196,Li2Mn3FeO8
mp-555403,-2.861144934,K3WF6
mp-672226,-0.148053021,BaMnSi2
mp-1672,-2.486049075,CaS
mp-556060,-2.252185923,NdTeBrO3
mp-753955,-1.586270931,K3H8RhC4(ClO6)2
mp-865427,-2.803469233,KSrCO3F
mp-505131,-1.971254124,LiVCuO4
mp-25886,-1.818907765,CuPO4
mp-865194,-4.14347706,TmF3
mp-683902,-0.728155072,Rb3Nb2AsSe11
mp-2563,-1.814058419,CeSe
mp-556785,-2.750554516,RbTeF5
mp-5141,-1.767320035,Na2SeO4
mp-683891,-0.74252366,MnSb6(Pb2S7)2
mp-15740,-2.14916592,SrZn2(AsO4)2
mp-765493,-2.506218943,Ba2Sb2O5
mp-569129,-0.244404675,TlCuPSe3
mp-707532,-1.274519357,NaH8SeNO6
mp-862373,-1.644050278,ScS2
mp-764941,-2.354271061,Li3Fe8(BO3)8
mp-850412,-2.667482827,Li7TiCr3(PO4)6
mp-766337,-1.711964815,Ba6CaI14
mp-758270,-2.821854397,Li3Ti(PO4)2
mp-9775,-0.870939163,NaSrAs
mp-20463,-3.053608032,CaPbF6
mp-558183,-0.82609129,MoS2N2Cl5
mp-21221,-0.424246383,Pr(FeGe)2
mp-556735,-1.70164212,Rb2Bi4O7
mp-752835,-2.276593013,Li2Cu2F5
mp-742859,-1.731865348,Fe3P2(HO)16
mp-675102,-3.86822705,Ce9GdO20
mp-22164,-0.607524591,PrNiSn
mp-571270,-0.824930229,NbSe2
mp-567918,-1.45550886,Ba2Nd7Si11N23
mp-686466,-2.208327874,Pr16Si16N27Cl3O14
mp-19464,-2.40017996,Na5Lu(MoO4)4
mp-770628,-2.236286611,Li2CrO3
mp-555611,-0.709498253,Cs3KRe6C6(S4N3)2
mp-642648,-1.629446284,KP(HO)2
mp-32833,-1.65724746,Ho6Se11
mp-978288,-0.137515967,MgNi
mp-690546,-2.478970313,TiNiO3
mp-865188,-1.244245969,MgH8(ClO6)2
mp-558396,-1.509127615,Rb2Te(H6O5)2
mp-690012,-2.364349769,CrPO4
mp-721158,-1.996171958,Mg2P2H12O13
mp-997020,-0.500922919,CuClO2
mp-4438,-2.68625827,CaSnO3
mp-998350,-1.562336377,BaZrSe3
mp-779878,-1.978472853,Na4Bi2P(CO4)4
mp-772396,-1.85050564,Li2Cr2O7
mp-975364,-0.668080377,RbCuO3
mp-757119,-2.071187701,LiCu2F5
mp-631552,0.938350713,SrBiB
mp-972352,-0.06401151,YbMg
mp-1019546,-3.64403484,BaY4Si5O17
mp-554412,-2.965491578,RbTa(PO4)2
mp-7067,-0.598967583,Ca(CdAs)2
mp-604725,-1.821634337,RbMgP(H6O5)2
mp-743601,-2.700763245,CaFeSn(PO4)3
mp-1018063,-0.639433188,ErH3
mp-568992,-0.850326596,ZrIr
mp-715275,-1.777148592,Fe3O4
mp-777889,-1.818651814,Li4Fe(TeO4)3
mp-973471,-2.116120986,KReO3
mp-11773,-3.471629331,Nd3GaO6
mp-720644,-1.347125648,PH9(NO2)2
mp-554405,-1.137482309,ZnS
mp-556434,-0.656882633,AgBi(PS3)2
mp-560327,-2.0403301,Na2Sn2C3(O2F)3
mp-24193,-1.525872514,NaH3O2
mp-780092,-2.760848415,V6O5F19
mp-850970,-1.366144592,Co2O3F
mp-4961,-1.350426077,Na2HgO2
mp-765150,-2.297162014,LiSn4(PO4)3
mp-22906,-1.749478733,CsBr
mp-12387,-2.3037561,YbAsO4
mp-1013735,-0.464508135,Ca3Bi2
mp-634326,-1.953055888,GaHO2
mp-29584,-0.413003015,K4BeAs2
mp-774248,-1.788556032,Li4Ni3Sb5O16
mp-11412,-0.562034672,ScGa2
mp-781078,-2.562351801,Li3V2P4(HO8)2
mp-752605,-2.09590898,LiAgF3
mp-22287,-0.515589555,NbGeIr
mp-35208,-4.124751804,NdOF
mp-3719,-1.555041397,Rb3NbS4
mp-567855,-0.798758291,RbGeI3
mp-6174,-3.3533666,Mg2Al4Si5O18
mp-30562,-0.258427303,Sc2Co
mp-504,-0.5294423,CuS
mp-559558,-0.5844479,Cu3P8(S2Cl)3
mp-759544,-1.485838657,In3Cu3O8
mp-8406,-0.999065051,Li3NdAs2
mp-531527,-3.501091173,Ba3Ti20O40
mp-568883,-1.695287721,Pr3SiSe2N3
mp-608516,-1.925807426,CsGaCl4
mp-36100,-2.460009402,Ca(SmS2)2
mp-18206,-0.138718586,Co2As
mp-569486,-0.301030321,Yb2Ag7
mp-752755,-2.025489694,NaSbO3
mp-767416,-2.191988261,K3BiPCO7
mp-3601,-2.113871955,BaUS3
mp-721988,-3.232473147,NaAlSi3O8
mp-23370,-0.46203509,CuW3Br7
mp-11016,-1.148424953,RbCd(NO2)3
mp-567510,-0.580504843,BaSn2
mp-689834,-1.932183879,NiP2O7
mp-17808,-2.339711357,Nb2Zn4O9
mp-752637,-3.162127598,HoBrO
mp-740,-0.994217722,NdTe3
mp-568964,-0.729553985,La3MgBi5
mp-18966,-1.352938037,FeAgO2
mp-555911,-2.491466104,TlAsF6
mp-771131,-3.470244336,NdZrO3
mp-605691,-2.323590335,La2P3H7O11
mp-4324,-2.058167417,Tm2CdS4
mp-23780,-2.189372352,Na3H(SO4)2
mp-623984,-2.000155141,PbSO4
mp-770854,-2.013005615,Li10Fe3Sb7O24
mp-765712,-1.547539521,Li4FeNi3O8
mp-27653,-0.240951645,LiAlH4
mp-541299,-3.134561476,Zr4Cd(PO4)6
mp-554590,-2.266777958,Cu3B7BrO13
mp-20867,-0.41086505,Eu(AlGa)2
mp-29564,-0.347282709,Ba2Mg3Si4
mp-868632,-2.355288129,MnOF
mp-19403,-2.953118875,Ba2CaMoO6
mp-19491,-2.891022707,Ba2Ni(PO4)2
mp-14501,-0.671918565,Ba(As3Pt2)2
mp-569526,-1.412461815,RbCuCl3
mp-11754,-0.715701622,Sc6Te2Os
mp-30198,-2.778994526,Ba4Ga2O7
mp-766269,-0.956753961,ZnPH5C2N4O3
mp-16337,-0.299931711,Ga2HgTe4
mp-560303,-3.053362586,BaCa2C2(O3F)2
mp-570482,-0.394740339,Ba(AlGe)2
mp-560616,-1.921211914,KCO2
mp-28954,-0.370613016,Tl2PdSe2
mp-581749,-1.103531345,CsTm2Cu3Se5
mp-560831,-1.056954449,Na6P4Pb3S16
mp-23086,-2.506291687,ErSeClO3
mp-600216,-1.172214796,U2Se3
mp-34976,-4.019068402,CeOF
mp-756241,-2.426088115,PrBiO4
mp-28473,-1.790152365,CClF3
mp-771005,-3.51092829,LuTa3O9
mp-5407,-0.613065299,TiAlCo2
mp-18427,-0.283871605,Nb2Al
mp-10873,-0.701200871,ScAlAu2
mp-27400,-1.245823763,RbCdBr3
mp-770850,-2.242646992,Li2TiCo2O5
mp-12277,-0.763849323,CaAgP
mp-769792,-1.797069813,Li4Fe5CoO12
mp-643788,-1.596609222,Na2Sn(HO)6
mp-650741,-1.695896793,Cu4Mo5O17
mp-504957,-1.499106374,RbReCl4
mp-754238,-1.561122865,Li2CuBiO4
mp-1019101,-0.837770089,SmGeAu
mp-2750,-0.206350562,Cr2Te3
mp-5246,-2.87093302,KNbO3
mp-864916,-0.788331232,Hf2TcRh
mp-632667,-0.67217314,YbH2
mp-974920,0.028409835,Na
mp-2137,-0.17185083,Mg2Ni
mp-505368,-1.757503253,As2Pb3O8
mp-15605,-0.667989583,ScSi3Ni2
mp-541201,-1.932103906,TlCuPO4
mp-36903,-1.509460127,KNO3
mp-12716,-0.404562755,LiTlPd2
mp-27805,-2.096098038,Ba3SiS5
mp-775978,-1.915368738,Na4Sb2C4SO16
mp-560501,-1.922487565,Tb3CuSiS7
mp-560032,-2.595749896,NaNb2AsO8
mp-704946,-2.41382668,Fe2P4Pb3O16
mp-505577,-0.707666555,Dy3Ge5
mp-2649,-0.669295051,Zr5Sb3
mp-3210,-0.851233238,Ca(CoP)2
mp-10437,-0.850946965,Ba(CuSe)2
mp-27923,-1.758542142,TbCl
mp-23199,-2.929226378,BaCl2
mp-763059,-2.021928521,LiV(CO3)2
mp-643026,-1.878852274,SrH4(ClO)2
mp-777463,-2.679442827,Li2FeF6
mp-639811,-1.52583882,KIrO3
mp-997618,0.369184507,BSb
mp-22522,-0.667774706,ZrCuSi
mp-684427,-2.524178187,LiSb(PO3)4
mp-554523,-1.58135393,TeBrO3F5
mp-978501,0.608368984,Si3Se
mp-8504,-2.348367916,Yb2TeO6
mp-771660,-2.401569419,MnP2O7
mp-756861,-3.671270551,LiLa4Ti3O12
mp-570948,-0.849945221,LiCaGaN2
mp-29723,-0.422452095,LaB2Ru3
mp-571584,-0.607588198,LiMgSbPt
mp-24316,-1.383410048,CdP2(HO)4
mp-763350,-2.59811082,V3O5F
mp-770754,-1.116440552,Ho(ClO4)3
mp-780519,-2.343756198,Fe3(OF2)2
mp-755264,-2.825366603,TiO
mp-850910,-2.054243006,Na6V2As(CO4)4
mp-675073,-1.382102774,Na4PtO4
mp-12008,-0.25096109,ErCdCu4
mp-14708,-3.10709877,Tm2Ge2O7
mp-29291,-1.478649715,I2(OF2)3
mp-866279,-0.5688722,CaCdPd2
mp-570000,-1.084972531,K3Mo2Br9
mp-767589,-3.036180397,LiVF5
mp-976426,-0.409259492,LiLuHg2
mp-27283,-1.50481393,TlPb2Cl5
mp-867177,-0.41205747,PrCdHg2
mp-27740,-3.695860007,NaNp2F9
mp-16363,-0.66136798,CoAsS
mp-27339,-1.922858568,Sb2(SO4)3
mp-569018,-0.19472513,Mg3Bi2
mp-973626,0.121610548,Hg3Au
mp-626412,-1.628815127,In(HO)3
mp-676609,-0.321848999,Ga6SnTe10
mp-9149,-0.99579136,Er3P4Pd7
mp-676378,-3.228655364,Sr6Ta2O11
mp-972439,-2.350949886,Zn3(PO4)2
mp-18727,-2.93678276,LiCr(SiO3)2
mp-574928,-2.007644862,CsPH3O3F
mp-1009735,0.242386432,ReC
mp-505803,-0.148110028,MnFeAs
mp-999307,0.452892159,OsN
mp-861665,-0.358309767,LiTmIn2
mp-694881,-3.391744749,NaNd3Ti3MnO12
mp-18341,-2.938437752,ErPtF7
mp-776567,-3.004489627,NaTi2(PO4)3
mp-555344,-3.421688448,Hf2P2O9
mp-555363,-2.638786074,Na2Cd(SiO3)2
mp-504587,-0.589871126,Fe9Cu9S16
mp-770720,-2.664495067,Li4ZrO4
mp-23951,-0.373646594,Cs(BH)3
mp-1018782,-0.663372337,Li3YBi2
mp-770862,-1.88382467,Li2Cr2O7
mp-3597,-2.19877499,BaRuO3
mp-28109,-1.719370285,SbAsO3
mp-752538,-1.915463623,KSnO2
mp-16356,-0.676290549,TiNiGe
mp-851033,-2.254463832,LiCo3OF5
mp-36526,-4.178314041,AcOF
mp-11919,-1.213012363,Sr(BeN)2
mp-754009,-2.802046722,ScBiO3
mp-20848,-0.410787142,TmIn
mp-555978,-1.844816666,Sm3CuGeS7
mp-758316,-2.914420152,La10Bi8O27
mp-976113,-0.670501652,LaAu3
mp-253,-0.348192452,ScCo2
mp-571093,-0.470051821,BaAlSiH
mp-707900,-1.499513461,PrH20S4N5O16
mp-505351,-1.03992732,Na3(FeS2)2
mp-684898,-0.330937019,Cu18S11
mp-5782,-1.093401222,AlAgS2
mp-770469,-2.642139579,Li5TaO5
mp-35714,-2.370227168,La5TlS8
mp-754363,-3.555030246,Ba2HfO4
mp-1919,-0.025348537,ZrCr2
mp-989647,-0.904976049,YReN3
mp-23167,-1.265371192,TlCl
mp-29415,-0.997298061,Cd3PCl3
mp-990441,-0.446895382,H2O
mp-775438,-3.053052559,V2OF5
mp-644223,-0.386343749,LiBH4
mp-14928,-1.345921204,Sc2MnSe4
mp-559126,-3.484484927,NaZr2CuF11
mp-6795,-3.278008923,Ba5Ho8Zn4O21
mp-557084,-3.104799273,Al2CuSi2O7F2