id,band_gap,pretty_formula
mp-707304,5.7354,Be4Si2H2O9
mp-699146,2.424,Mg3AlFe(SiO4)3
mp-756136,2.6676,CaPbI4
mp-776199,3.1131,AgClO3
mp-758715,0.5166,Li2CuSiO4
mp-29976,2.5779,Na3BS3
mp-561827,3.331,Cs3TlF6
mp-756998,4.189,CdH2(SO4)2
mp-543047,0.7998,KNaCu(Si2O5)2
mp-19513,1.6632,SrV2(AsO5)2
mp-8401,6.7028,CsMgF3
mp-765735,1.0618,VO2F
mp-779091,1.173,LiFe4(BO3)4
mp-15702,3.8457,MgCN2
mp-780003,4.7539,La2P4O13
mp-754790,1.5488,Ti3N2O3
mp-684694,0.8032,Yb2Se3
mp-567636,0.3705,VFeSb
mp-669414,2.8078,HfPbO3
mp-555644,3.436,Al2Tl3(PO4)3
mp-18788,1.5067,CrCoO4
mp-14132,5.0364,Lu3Al5O12
mp-556781,1.7929,Y3CuGeS7
mp-778731,3.8341,Li2MnF4
mp-672360,2.0225,Gd(C2N3)3
mp-567720,0.463,CuHgSeBr
mp-764383,0.5421,MnFeCo(PO4)3
mp-776115,1.2848,Li2NbFe3O8
mp-3931,1.2297,SmSF
mp-641987,1.0687,Sb8Pb7S19
mp-766957,2.8001,FeBP2H5NO9
mp-644264,1.4456,Ca4Mg4Fe3H22
mp-9194,1.2865,SmCuSeO
mp-560641,5.9805,Ba12Cl5F19
mp-19291,1.2628,NaVPO5
mp-560242,2.6871,NaMnF3
mp-760629,3.5596,LiBiP2O7
mp-581370,0.2301,YCu3Se2ClO8
mp-773066,3.0048,KTa2PO8
mp-777528,2.4775,Li3VF6
mp-697267,3.9718,TlP(HO2)2
mp-559052,2.6654,LiNb3(Bi2O7)2
mp-8262,0.9006,K2P3
mp-3611,3.2327,Dy2Hf2O7
mp-754942,3.5992,SrSm2O4
mp-773181,0.4069,Cr3WO8
mp-675192,1.8973,Ce3Dy2O9
mp-19833,0.3757,InAgS2
mp-557667,2.4115,Ge3Pb5O11
mp-569050,0.6025,NaW6NCl18
mp-19260,3.8815,Li2WO4
mp-14964,3.4238,Pr3TaO7
mp-849780,3.3704,La3H15I10O37
mp-19256,1.0707,Er2Mn2O7
mp-9239,2.5431,NaLaMgTeO6
mp-560982,2.4568,K2Cd(NO2)4
mp-9718,1.3014,Rb3BAs2
mp-773525,0.7977,LiFe3O4
mp-773725,3.5405,NaLi5Mn2P2(CO7)2
mp-556583,4.3013,CsSb2F7
mp-17892,1.6563,Ca2VN3
mp-541566,5.5408,K2MgB12(H2O3)10
mp-755565,3.6743,HoBrO
mp-18883,1.5634,YVO3
mp-16961,2.1551,Na6Si2Se7
mp-10349,1.2356,Na2SnTeO6
mp-28536,3.3733,BaSe2O5
mp-771008,2.4718,Ba3(BrO)2
mp-734377,4.4116,KCdP3H8O13
mp-641415,3.0298,PbWO4
mp-769218,0.3224,Ni(PS3)2
mp-21374,0.8386,Cd(InTe2)2
mp-9571,0.3924,Ca(ZnAs)2
mp-622086,1.9676,La2GeS5
mp-777459,3.8156,Li3FeF6
mp-762538,0.5053,Mn13Fe11O32
mp-773196,0.6873,LiCoCSO7
mp-770678,2.438,Li2Cr2O7
mp-616641,0.2729,K2UI5
mp-771174,3.8091,Ba2B2O5
mp-8898,3.2756,TaAlO4
mp-2400,1.2347,NaS
mp-769588,1.0336,Li3V2S2(O4F3)2
mp-779737,5.4331,Ho2P4O13
mp-24683,3.9255,RbZn2P2HO8
mp-5449,2.9193,Na2Ti6O13
mp-643989,4.3304,KHCO2
mp-673118,2.2258,Sn3(P2O7)2
mp-561259,5.0991,Na3NbOF6
mp-571531,0.9283,Cs3Mo2I9
mp-696329,1.8987,RbCa(H2N)3
mp-38605,0.4294,Sn(BiTe2)2
mp-762326,0.5456,Li2CuF5
mp-21190,3.2352,PbSO3
mp-542625,0.3383,Sr3GaSb3
mp-757874,3.0412,LiSiBiO4
mp-3524,3.8107,LiPN2
mp-680747,2.2415,K4(BSe)9
mp-557121,1.6433,K2Sn(AuS2)2
mp-27618,2.259,Na8Ga2O7
mp-19013,0.2737,LiV2O5
mp-757082,3.5218,LiSi3BiO8
mp-775932,2.4686,Ba2YI7
mp-643243,3.9357,Cs2H6Pt
mp-569209,2.1081,SbAsPCl13
mp-384,0.58,MgP4
mp-1020016,3.3032,Li4Ca2Mg(SiN3)2
mp-695936,4.8966,GeH10(N2F3)2
mp-777551,2.6788,LiVF3
mp-757324,2.1537,CeZr6O14
mp-690581,1.0905,Li6Mo2O7
mp-6668,3.0594,LiTiPO5
mp-752533,2.7973,SrLa2O4
mp-557747,4.7677,K2SrP2O7
mp-33816,1.2232,Rb6Fe2O5
mp-2176,1.029,ZnTe
mp-24714,3.1832,ZnH4(CO3)2
mp-754073,3.0537,Lu2TiO5
mp-19112,4.1128,FeSO4
mp-557758,4.7446,LaMg(BO2)5
mp-775320,1.7224,Li4V3O8
mp-28332,1.238,CsTlI4
mp-22355,1.7556,Sr2InSbO6
mp-755894,5.2422,Li2O
mp-626161,4.7661,Al5HO8
mp-560623,5.1759,Mg3(PO4)2
mp-2739,2.8141,TeO2
mp-505321,1.0327,CsNb(CuTe2)2
mp-619279,1.4147,In2PbS4
mp-653579,1.6351,Re3S4Cl
mp-556488,4.6928,RbNiF3
mp-1020666,2.8539,Li4P2O7
mp-1020670,5.1768,SrB4O7
mp-771045,4.0614,La2SiO5
mp-24617,2.6781,RbGdH2S2O9
mp-707720,4.8406,MgH40C10Br2(N2O)10
mp-780202,1.6738,Li2FeO2F
mp-9562,1.0101,LiBeAs
mp-17699,0.6539,Er2Cu(B2O5)2
mp-541001,2.2465,LiInI4
mp-28163,1.8723,K2PdF4
mp-756205,2.7215,ScBiO3
mp-763318,0.8922,LiCo2(BO3)2
mp-774315,0.8959,Li10Ti3Co3(NiO8)2
mp-756127,2.3323,TaNbO5
mp-775767,0.5657,AgAsO3
mp-680761,2.3911,Cd3(PO4)2
mp-14680,2.5154,Sr2Ga2S5
mp-704943,1.5501,Li2Mn3ZnO8
mp-8354,5.7609,LaF3
mp-5339,1.972,CsNaTe
mp-675701,1.1406,Ca(HoSe2)2
mp-601241,4.5914,Na3YH12(CO5)3
mp-4255,0.506,Ba(CuS)2
mp-557175,2.0281,ZnS
mp-559760,1.9833,ScIO
mp-759962,5.3482,PH5NO3F
mp-721067,5.2238,LiCaP3H8O13
mp-780798,0.664,LiMn2Cr2O8
mp-558933,2.8749,Na2Ge4O9
mp-17868,2.8365,NaAsO3
mp-1018033,0.4987,AgRhO2
mp-505511,0.3392,CoAsSe
mp-18815,3.0413,KVO3
mp-4758,4.5287,K2NbF7
mp-24294,2.3884,HgHClO4
mp-542912,1.5104,FeH12Pt(ClO)6
mp-542067,1.2236,Rb4Ti3S14
mp-542676,3.2191,Lu2Te4O11
mp-769301,4.497,Ca4Ta2O9
mp-555018,2.0975,RbNa2AuO2
mp-3379,4.6939,K2SbF5
mp-6481,3.9452,Na2ZnSi3O8
mp-768222,6.9305,BaY2F8
mp-625565,1.7861,Cd(HO)2
mp-774043,1.0275,MnV(P2O7)2
mp-775837,4.165,Sc2O3
mp-978534,0.4058,SiGe
mp-505158,2.1526,CsHoS2
mp-780099,1.3708,Fe2OF3
mp-29690,2.752,Tl2Te2O5
mp-6125,2.6095,RbTi2(PO4)3
mp-555736,1.611,BaHg2(ClO)2
mp-674465,4.9881,K2SrCl4
mp-769003,3.7245,BaY3Cl11
mp-763253,1.4753,LiCoSiO4
mp-559289,4.089,YTaO4
mp-568904,0.6907,KTh(SbSe3)2
mp-18447,0.5773,K3Na2SnAs3
mp-33948,2.7166,Ho2Ti2O7
mp-1019542,4.4673,BaCaB2O5
mp-780535,2.9402,BaLu2O4
mp-759943,4.0646,Al2O3
mp-31073,4.9219,Na3B7O12
mp-23872,5.7408,Ca3Al2H6S(OF)8
mp-680384,3.0095,Sr10Ga6O19
mp-763191,3.4078,LiMnF3
mp-707443,4.7984,Na7AlH2C4(O3F)4
mp-651786,2.816,Ca5MnSi9(Pb3O11)3
mp-29947,1.1056,K3PSe16
mp-774732,1.2581,Li5BiS4
mp-17888,5.4251,K2Zr3OF12
mp-27345,0.9646,Na3BiO4
mp-776756,2.258,Li4TiMn2Ni3(PO4)6
mp-754311,3.9436,Mg(ReO4)2
mp-35906,2.8093,Y(AgCl2)3
mp-554172,0.5038,Ba3Zr2S7
mp-6511,4.1211,KCSN
mp-675802,4.1074,Y4Zr3O12
mp-850740,1.7805,Li2V3P4H4O19
mp-686581,0.7303,In2(PSe3)3
mp-24053,2.8242,AgH2ClO5
mp-15685,0.6779,Na2CuAs
mp-4412,1.4729,La4Se3O4
mp-672223,2.9741,Na2Zn2(TeO3)3
mp-5548,2.02,Ta2Cd2O7
mp-634446,2.9131,CsAl(H2N)4
mp-625572,4.1623,H5BrO2
mp-17789,0.5194,K2RuO4
mp-34439,2.6133,Tb10Ti6O27
mp-561672,0.366,Cs4IrO4
mp-764668,0.8063,Fe4OF7
mp-569548,0.6801,CsAuBr3
mp-8774,3.4607,Rb3CO3F
mp-672979,4.3808,LiBiP2O7
mp-974035,3.2549,Pb3I2(Cl2O3)2
mp-19717,0.8674,TePb
mp-763205,0.9759,Li2VO2F
mp-559955,2.5225,Pr6Si4S17
mp-32780,1.8679,AuCl
mp-865182,1.7004,Gd2SCl4
mp-769077,3.4781,Mg2Te3O8
mp-777920,4.1165,LiFeF4
mp-542453,2.3831,NbPO5
mp-27690,3.0971,Sr3Zr2O7
mp-21904,3.4725,PbS2O3
mp-625928,2.4683,HI3O8
mp-772972,3.7166,Li2Ti2O5
mp-8781,1.4747,SnS
mp-607267,3.6184,KPb2Cl5
mp-989571,2.9904,Cs2NaInCl6
mp-637196,2.1357,K2Pt(CN)4
mp-556654,5.6055,SiO2
mp-6694,4.7937,Cs2Zr(SiO3)3
mp-570536,0.7644,Rb2AgAu3I8
mp-763177,1.6993,Li2VO2F
mp-532384,2.5873,Dy2Ti2O7
mp-770409,3.9474,Tm2GeO5
mp-27303,0.6596,NaAg3O2
mp-626024,3.3735,H2SeO4
mp-16855,2.9726,K3Ta3Si2O13
mp-555311,2.0318,ZnS
mp-780128,1.3111,Fe2OF3
mp-19324,3.7321,Ca2MgWO6
mp-758157,2.1774,Na4H2RuN6O13
mp-756018,3.1605,BaMgO2
mp-773020,5.4099,LuP5O14
mp-684708,1.9723,Er2S3
mp-6425,3.7687,Li3In2(PO4)3
mp-19202,2.8537,MgCr2O4
mp-770361,1.4815,LiV2BO5
mp-31961,4.2047,LiMn2(PO3)5
mp-769611,1.934,Li4V3CrO8
mp-568819,1.2075,Bi20(PtBr12)3
mp-774388,1.2841,V4(OF3)3
mp-697030,3.0693,Mg2H6Ru
mp-571313,2.7944,Hf(SeCl6)2
mp-557512,3.2773,LaH4C4NO8
mp-684010,3.1144,K8Ti5P2(O4F11)2
mp-772318,2.478,Li2Cr2O7
mp-18449,3.6641,K2ZrO3
mp-19335,1.8238,KCr3O8
mp-4779,5.668,Li2B4O7
mp-24729,4.1785,RbGa2P2H5O11
mp-16035,1.0705,Gd2TeO2
mp-764048,0.6598,Li4Fe2Ni3Sb3O16
mp-5455,3.4479,K6Ti2O7
mp-698292,2.971,K2ZrCdH16(CO3)8
mp-720432,6.1082,Na2Ca9NdY5HoF41
mp-531952,2.6738,KW3Br7
mp-776813,1.1847,LiMnF4
mp-505271,0.881,Ni(SbO3)2
mp-19522,3.1087,P2W2O11
mp-21705,1.0584,K2In3AgSe6
mp-14628,1.3054,ZnSnO3
mp-554432,2.044,ReSbOF10
mp-675286,1.3761,Ca3UN4
mp-771922,2.8353,Ba3YI9
mp-4764,2.2028,Pr2SeO2
mp-771611,0.8878,Li5V4O8
mp-677416,3.695,Na5Mg5In3(SO4)12
mp-560129,3.7903,Na3La2(BO3)3
mp-771047,2.5178,Mn(IO3)2
mp-560843,3.1499,Na4Zr2Ti(CO4)4
mp-32891,1.9021,Y2S3
mp-560995,3.4466,Y(IO3)3
mp-24097,4.2475,Mg3Si2H4O9
mp-27281,4.7445,LiH3O2
mp-11147,1.5228,Na5CuSO2
mp-18471,2.1736,Sr2UO5
mp-5899,4.3567,NdAlO3
mp-13985,1.8902,Li2PdF6
mp-699008,1.2868,Rb2MnV2(ClO3)2
mp-560919,4.2043,Na5Y(CO3)4
mp-600171,4.4572,ZnH8C4(N4Cl)2
mp-17465,0,Gd2Cu(SeO3)4
mp-625174,2.2512,H5IO6
mp-766506,2.0526,Li3CuS2
mp-768163,0.8045,Li7(SbS)2
mp-643451,1.9462,BaMg2H8Ru
mp-27519,2.4312,SeO3
mp-755404,2.4797,Gd3SbO7
mp-23334,2.4243,Bi2TeO5
mp-2991,1.8211,Cs2UO4
mp-696315,2.9756,NaHNO2
mp-644236,3.8209,Cs2MgH4
mp-781014,1.3712,LiVP2HO8
mp-774314,0.7783,Ti3MnV2(PO4)6
mp-752641,3.373,Lu3TaO7
mp-24721,2.9687,RbH
mp-772436,3.1821,Li2AlFeO4
mp-771238,2.2227,Y2TeO6
mp-23265,2.0112,GdCl3
mp-759406,3.2922,Li3Sb(PO4)2
mp-643708,3.636,LiH2IO
mp-778071,6.5269,BaYF5
mp-778633,3.5293,LiMnF3
mp-754269,2.7627,Nd3SbO7
mp-753795,2.9957,Li3BiO3
mp-779889,3.0739,Li5FeO4
mp-765499,2.4394,Li3VF6
mp-17161,1.5907,K6CdO4
mp-5472,1.8858,Nb2Cd2O7
mp-8973,4.184,NaSi2N3
mp-767419,6.1895,NaPH2OF6
mp-41473,3.1087,CsTiNiOF5
mp-849460,0.472,Mn2OF3
mp-27767,4.7981,Li6Si2O7
mp-774753,3.6955,Li5GaO4
mp-768702,2.958,Ta2Zn4O9
mp-556405,2.681,LaCN2F
mp-555433,0.6712,NaYbCO3F2
mp-773751,1.2629,Fe3(OF2)2
mp-545544,2.5812,Ba2TaBiO6
mp-695434,1.915,Li7Zr3Nb(TeO6)4
mp-973217,1.4848,SbSI
mp-755821,1.8951,Li5Cu(PO4)2
mp-8994,0.2218,Rb2NbF6
mp-675556,2.4561,Er2Zr8O19
mp-705329,2.5238,Li3Fe2(PO4)3
mp-676517,0.2125,La3U2O10
mp-569782,3.9744,Sr2LiCBr3N2
mp-757074,3.8627,BaCa2I6
mp-632715,0.2623,Cs3CeF6
mp-697575,4.0139,Rb2ZnH4
mp-560558,2.0891,CsCdAuS2
mp-4842,2.494,Al2ZnS4
mp-27764,1.9183,K4I2O9
mp-27927,3.3882,NbAlO4
mp-1217,1.2619,KSi
mp-27845,3.4788,CaSe2O5
mp-779622,5.5927,Be2P2O7
mp-5928,2.7138,Al2CdS4
mp-11012,2.9724,Sr(BS2)2
mp-27417,2.8861,Li3InO3
mp-6388,4.3914,Ca4SmB3O10
mp-8200,0.6188,AgP2
mp-28016,2.9387,Li4Ge9O20
mp-770128,3.333,Cs6Ti2O7
mp-28955,1.3798,Mg3BN3
mp-17062,4.6303,Dy2Si2O7
mp-23598,1.9303,SIO3F
mp-769881,3.9361,Li3CrF6
mp-680498,1.724,RbTaPS6
mp-558846,0.328,Cs2As4Pd3O14
mp-626778,3.3035,NaHO
mp-19089,1.4552,UCoO4
mp-2030,0.6668,RuS2
mp-643427,3.7724,MnH2SO5
mp-779590,4.0621,La3PO7
mp-685295,1.709,Sr22Nb10O47
mp-759876,1.6421,Na5SbO5
mp-754308,0.7025,Li3Cu3(PO4)2
mp-769614,1.8654,Li4V3CrO8
mp-9198,1.0211,Fe(SiP)4
mp-9499,3.8751,Sm2C(NO)2
mp-759640,2.0224,LiCuCO3
mp-13199,1.0634,Zn3TeO6
mp-559376,4.7509,Na2CaPO4F
mp-773444,2.3872,MgV3O7
mp-32120,1.6308,Mo3(PO4)4
mp-981511,2.8054,Y3SbO7
mp-556942,4.4451,Ca2SiO4
mp-13277,0.9631,BaLiP
mp-9081,2.1651,CsNdS2
mp-17298,2.7817,SrTi4(PO4)6
mp-698170,5.2289,Ca2B5H2ClO10
mp-510727,3.1764,InTeO3F
mp-36912,1.647,Pr2CdS4
mp-556061,4.4227,CsSb2F11
mp-676563,1.2828,Ta4Cu2O11
mp-781757,2.487,TaNbO5
mp-31507,0.2789,Sb2Te4Pb
mp-28043,1.0507,Tl3AgI5
mp-643259,4.4775,Li4H3ClO3
mp-557935,0.8662,Dy2Cu(BO2)8
mp-9462,0.741,CsTeSe3
mp-776683,4.8595,Li3FeF5
mp-29475,5.2985,BH2N
mp-9295,1.1379,TaCu3Te4
mp-638150,2.3341,KPPbS4
mp-680111,2.3813,CdI2
mp-560613,1.8126,Na2TeO4
mp-7971,1.4573,Ba4Li(SbO4)3
mp-771833,4.3991,Sr2LaCl7
mp-753798,2.1213,Rb2SnO3
mp-545529,1.2095,NdBi2ClO4
mp-37920,0.0902,AgAuS2
mp-28005,4.5716,As2(SO4)3
mp-9368,2.3824,RbTmS2
mp-755312,0.3696,Li5Nb2Cu3O10
mp-2517,0.2912,Ca2Si
mp-8086,1.0572,Na2Zn2O3
mp-4582,0.6468,NdRhO3
mp-680415,0.5452,Os3C10(BrO5)2
mp-568785,1.257,NaAl3NiCl12
mp-777888,3.2699,LiFeF3
mp-755646,0.9544,LiCuO
mp-982048,0.7007,Ge2O3
mp-19158,2.026,Mn3WO6
mp-755731,1.6249,Ta2Pb2O7
mp-781615,0.5763,HfCrO4
mp-5970,0.9028,Ba(CuS)2
mp-20088,1.2998,Na4PbO4
mp-12022,1.7981,HgB4O7
mp-631378,1.1015,Cs7NbIn3As5
mp-769527,1.0465,Li2MgCo13O28
mp-555303,5.7414,LiEr(PO3)4
mp-768973,4.5621,Ba2YCl7
mp-567551,1.9887,SiC
mp-9763,1.9739,K2NbCuS4
mp-2251,0.9858,Li3N
mp-14128,6.4651,K2HfF6
mp-557282,1.4857,Rb2Ce(NO3)6
mp-542136,3.8977,Na3PSO3
mp-698668,1.7111,Nb3ZnFe3(O6F)2
mp-559963,2.1062,AlS2NCl4
mp-762996,1.6981,FeOF
mp-14653,0.5352,AgSb2F12
mp-20316,1.6507,PPbSe3
mp-30011,2.3792,SbKrF7
mp-685194,2.66,Li4Ti5O12
mp-756914,5.6699,Er2B4O9
mp-672251,3.3514,CsGaBr4
mp-573658,1.4764,Cs3BAs2
mp-780175,3.8516,Li4Fe3P4(HO8)2
mp-757233,2.7903,Gd2Zr2O7
mp-17120,0.6537,Cs6K3AlSb4
mp-554581,2.6291,KSmP2S7
mp-19300,2.7928,La2MoO6
mp-696347,5.3483,NaH3SO5
mp-761809,0.2174,RbHoHS2O9
mp-560471,3.3262,Zn2B2PbO6
mp-19047,3.7851,MgMoO4
mp-772753,4.3438,Li3ZnPCO7
mp-3716,0.3321,TbNiSb
mp-17275,3.6959,SrY2O4
mp-769575,2.9488,Li6Co5(P2O7)4
mp-4393,1.5343,Cs4U5O17
mp-913,1.4576,CdP2
mp-776427,3.5895,ZrO2
mp-22919,0.769,AgI
mp-17146,1.9305,K2S5
mp-699501,3.7444,Ba(HO)2
mp-556653,2.0528,Cd2BiAsO6
mp-759763,3.4413,La26B8O51
mp-752729,3.6321,CaTb2O4
mp-5966,0.4061,Cd2SnO4
mp-757901,3.3523,LiSnPO4
mp-18892,3.979,KBaVO4
mp-35647,0.6709,Zn2PtO4
mp-557861,2.1401,Li2CaTa2O7
mp-776642,3.1233,Li2Fe3F8
mp-29025,2.0827,Li5Br2N
mp-766324,3.1404,BaCaI4
mp-989583,2.8293,Rb2LiInCl6
mp-21309,2.2693,MgTe(PbO3)2
mp-27241,3.2523,K2SbCl5
mp-772955,4.1372,Ba2LaCl7
mp-706976,5.1708,PH4N(OF)2
mp-17282,1.4102,SrTh2Se5
mp-20485,0.4575,InSe
mp-550893,3.8254,HfO2
mp-770671,0.2058,Li4Cr5Sn3O16
mp-770344,2.6279,Li3V(BO2)5
mp-557231,3.7063,KTeO2F
mp-1767,3.9804,Tm2O3
mp-13229,4.5665,K3GdF6
mp-759928,4.604,K3TbSi3(HO5)2
mp-23145,4.6948,Na4Al3Si3ClO12
mp-673874,2.1667,Ba9(NdS6)2
mp-626855,1.8763,Fe4H14O13
mp-755559,3.4523,LiNbO3
mp-776246,1.5624,Zr2N2O
mp-774229,0.8729,Mn2InO5
mp-567318,0.6495,TlSbSe2
mp-17559,3.2775,Y2TiO5
mp-555489,4.6651,LiY6B3O14
mp-721011,2.839,Pr20AlSi19N33Cl2O19
mp-766258,3.9935,Y13Tm3O24
mp-21452,1.1617,Pb3O4
mp-756647,4.4417,K2YPCO7
mp-3317,0.7335,SmRhO3
mp-757434,2.8677,LiSi6Bi9O26
mp-768762,3.0135,Ho2TeO6
mp-862670,1.1048,Sr3Co(CN)3
mp-752753,1.4277,SbO2F
mp-760755,4.6169,KAl11O17
mp-776662,1.4027,LiCrPO4F
mp-24523,4.2024,CsAlH24(SeO10)2
mp-769476,0.36,Li6Fe3Cu(PO4)6
mp-779545,1.7275,Na3CuO2
mp-28908,0.2303,Ba5(RuO5)2
mp-706983,3.0022,K3HPtS2(ClO3)2
mp-555932,7.282,RbEr3F10
mp-849391,3.7682,InH9(NCl)3
mp-989545,3.0737,Rb2NaSbCl6
mp-28568,1.4328,Rb3CuO2
mp-554518,0.3251,EuCO3
mp-766390,1.8901,Li5BiS4
mp-764759,0.3156,Li6Mn5O12
mp-560873,2.9332,Pr3Nb(Cl3O2)2
mp-5241,2.1666,DyPS4
mp-28788,1.8841,Ba9(AuO6)2
mp-18798,0.4341,Sr2Mn2O5
mp-9628,3.3579,KCdF3
mp-558281,3.6139,SrCrF4
mp-569939,0.557,AgBi2Se3Cl
mp-779084,3.1423,LiCr(PO3)3
mp-28932,3.2097,Sn4OF6
mp-28726,6.9098,KYF4
mp-24313,4.4692,ZnH6(CO3)2
mp-36381,1.2072,Sn(PS3)2
mp-1167,9.0608,CF4
mp-27552,2.1699,TlPbI3
mp-2789,2.8134,NO2
mp-763780,2.0233,Fe(PO3)3
mp-768909,3.3987,Sr(IO3)2
mp-38125,1.0464,Sm2CdSe4
mp-766467,1.2911,LiCuS
mp-770542,0,MnP2O7
mp-772151,2.8944,Li2Ti4O9
mp-18062,0.7314,Na10YbSn12
mp-676724,0.8579,Ca(Al3Te5)2
mp-977414,1.2781,ZnCu2SiS4
mp-644514,0.4138,MnO2
mp-9900,0.4687,Ag2GeS3
mp-19458,0.8356,BaV10O15
mp-28125,7.2102,H11NF8
mp-10074,1.5209,GeSe2
mp-14246,3.6513,Ba(AlS2)2
mp-19465,3.1168,HoCo(BO2)5
mp-561647,5.0193,Cs2TeOF4
mp-8314,3.5279,Cs2NaAsO4
mp-721081,2.4738,KUP(H2O3)3
mp-24465,4.9814,GaP3(HO5)2
mp-8109,2.0365,EuB4O7
mp-560046,0.7238,Ta2Pt3S8
mp-675100,1.7133,Nd2PbSe4
mp-755287,2.5242,Ca3CdO4
mp-540639,0.57,FeH8C4(S2N3)2
mp-13313,0.6595,ScTlSe2
mp-697767,4.0674,LiMoP2O7
mp-772630,2.8257,Li3V(BO3)2
mp-8395,0.2347,CaTiF5
mp-768160,3.6729,Li2BiPCO7
mp-23940,2.8228,NaHO
mp-985582,2.0261,Li6PS5I
mp-555172,2.4157,K3Nd3(PS4)4
mp-781646,3.1331,Tb2TiO5
mp-756290,3.6356,TbGaO3
mp-734150,4.8901,Na3YH6(CO4)3
mp-765742,0.5289,Na3V5O10
mp-615993,5.4702,SiO2
mp-556236,0.2501,Na3Ce2C4O12F
mp-557118,5.4995,SiO2
mp-767401,2.2487,Gd2AsO5
mp-28487,0.2311,Ge5(Te4As)2
mp-29127,1.0618,Bi(TeBr2)2
mp-614013,0.4649,CsSnI3
mp-28094,4.5287,RbDy2Cl7
mp-555863,4.9369,P4PtF12
mp-20845,2.714,Dy2Sn2O7
mp-561525,3.7999,K2Ga2B2O7
mp-7483,0.6433,KHgF3
mp-850407,4.1674,LiMnP(H6O5)2
mp-7640,3.7675,Sc2Si2O7
mp-24399,4.977,MgH10SO9
mp-754401,4.2222,Al2O3
mp-680048,2.688,RbW3Br7
mp-961723,0.3059,LiCaRh
mp-754825,4.0762,NaTmO2
mp-1020031,2.7883,LiCaAlN2
mp-690539,1.542,CrNiF6
mp-764746,0.2241,Li5V7O12
mp-759607,3.3817,LiSb4P7O24
mp-1019894,4.1377,La4B10O21
mp-2340,1.7552,Na2O2
mp-18253,2.4306,SrGa4O7
mp-559711,3.0831,Rb2Na2SiO4
mp-561492,2.5331,ZnSb2(XeF4)6
mp-554034,3.751,KLa2NbO6
mp-777887,2.5404,Li3VF5
mp-554107,2.9935,K2Na4Ge2O7
mp-22791,0.5725,TlInTe2
mp-23711,3.6284,MgH2
mp-15415,1.0113,K2GaAs2
mp-23431,1.9006,CsCu2I3
mp-19886,0.6738,ThSnPt
mp-774302,1.7275,TiMn3O8
mp-558046,2.7828,KMnF3
mp-561377,0.8443,K4Mn3F12
mp-34081,6.9245,NaYF4
mp-553342,6.0038,CsBe2BO3F2
mp-644672,2.4005,Cs3VH8(Cl3O2)2
mp-568036,1.8104,La2GaN3
mp-25885,0.3906,LiCuPO4
mp-541722,4.3948,CsBa2Br5
mp-3384,4.758,Er3Al5O12
mp-779643,1.3273,Li2CuPO4
mp-550998,1.6164,TiZn(BiO3)2
mp-550759,5.2142,RbClO4
mp-600041,5.4651,SiO2
mp-676580,0.4653,Ba11(Nb3S14)2
mp-769809,2.6172,Gd3TaO7
mp-11009,3.4018,CaC2(SN)2
mp-556896,1.8622,Ba4AgAuO6
mp-16705,3.6593,Pr2O3
mp-561664,4.0193,TeF4
mp-607931,3.454,Cs3NaLi2(BO3)2
mp-782662,1.2773,Li2V5Cr2O12
mp-746364,2.5508,CrH12Pd(NO)4
mp-554719,3.4133,Mg3B(HO2)3
mp-989614,1.4051,LaReN3
mp-780392,1.8466,Li5Cu(PO4)2
mp-756066,2.4831,Ho2Zr2O7
mp-15994,2.5782,Hg(PO3)2
mp-23957,3.5391,SrH2I2O7
mp-553082,1.15,PrBi2ClO4
mp-703470,4.1532,AsH6NO4
mp-19011,2.3281,Ba2NiTeO6
mp-690771,5.1223,H8CS(NO)4
mp-643710,4.535,Cs3B12H12I
mp-12027,0.3152,TaTlSe3
mp-757207,5.6236,YH5S3O13
mp-704950,2.7598,SrFeSn(PO4)3
mp-35527,2.5867,Zr7(NO2)4
mp-662535,3.0952,PbSe2O5
mp-24411,2.4456,K2LiAlH6
mp-19333,3.4246,Fe2B2O5
mp-850363,0.3454,Ti2Co3Te3O16
mp-771058,0.599,Li4Cr3CoO8
mp-675993,1.6519,Zr2N2O
mp-29432,3.8132,NaScCl4
mp-5884,5.9394,TmPO4
mp-776599,2.6024,NaTi2(PO4)3
mp-32509,1.7604,V(PO3)4
mp-772638,3.6345,Ho2WO6
mp-9317,0.5926,KZrCuS3
mp-562442,3.8006,Cs2SeO4
mp-571333,2.163,Ca5(SiN3)2
mp-7461,2.0479,Hg2SO4
mp-17059,2.2255,K3Nb3Si2O13
mp-21801,2.1723,Rb4PbO3
mp-9124,0.5475,LiZnAs
mp-764424,0.9428,Li3V2(O2F)2
mp-761817,1.2728,LiNbVO4
mp-754468,0.4999,NaCuO2
mp-530262,1.3186,Li15Cr2N9
mp-867938,5.0716,SnH6(NF2)2
mp-31119,4.436,TbScO3
mp-18555,5.8707,KEr(SO4)2
mp-667320,2.855,SeCl4
mp-759141,4.4264,LiBi(PO3)4
mp-850979,1.0194,V3(O2F)2
mp-720804,4.0174,K3Na3TeP6(HO4)6
mp-19516,4.5582,Al2(WO4)3
mp-766387,4.7304,RbAl11O17
mp-570268,0.5335,MnSbSe2I
mp-989575,1.1814,Cs2AlTlH6
mp-772554,0.2004,Li4Nb3V5O16
mp-753785,3.2629,NbOF3
mp-769138,1.9056,Dy2Sb2O7
mp-561251,3.3341,Rb2Y(NO3)5
mp-567874,3.3654,Pr(AlBr4)3
mp-755558,3.5488,BaLa2O4
mp-9753,0.289,Na2NbF6
mp-643801,2.1311,K2H6PbO6
mp-768582,3.6384,Na3BiBPO7
mp-31600,0.8739,LiCo(PO3)4
mp-568614,0.7314,Cs3W2Cl9
mp-555118,5.081,NaPO3
mp-865269,1.1309,TmCuPbSe3
mp-26311,1.9716,Li5Cu(PO4)2
mp-976868,2.0788,NiH2SeO5
mp-28021,4.4452,Sr5(Br4Cl)2
mp-989538,2.2862,Cs2InBiF6
mp-559755,3.8567,Sm2(SeO3)3
mp-510030,2.4274,Pb3(ClO)2
mp-754359,2.7148,Y6TeO12
mp-28351,3.9954,Dy2GeO5
mp-28329,1.6871,TlI3
mp-697914,4.4371,ZrP2(H3O5)2
mp-546973,0.9823,SrSnO3
mp-989196,1.8527,SbClO
mp-13061,4.0963,Y2O3
mp-29022,1.7903,K2GeSe4
mp-1020022,6.1272,Li3B(PO4)2
mp-13032,3.3692,MgS
mp-18040,7.1314,KPrF4
mp-752826,4.0095,Al2O3
mp-643712,3.0635,Rb3MgH5
mp-755198,1.7368,Cs3LaO3
mp-680472,1.9952,NaMo6Br13
mp-756468,3.1328,CaY2O4
mp-560420,3.7695,K3Bi2(PO4)3
mp-771831,3.6174,Sr2LaCl7
mp-755651,2.4844,CsGdO2
mp-759707,3.0256,Sb4O5F2
mp-16160,2.0229,Sm4Au2O9
mp-755568,3.0263,GaBiO3
mp-740710,5.0017,Na2LiP3H8O13
mp-561051,1.834,Rb2Sb4S7
mp-8459,2.8682,CdSO4
mp-542078,1.49,K2LaP2Se7
mp-600003,5.4596,SiO2
mp-850964,1.304,Li3CrO4
mp-752460,0.7818,LiAgF4
mp-626230,3.9044,Ca(H8O5)2
mp-29169,1.7733,Cd(AuF4)2
mp-714883,0.7865,MoO2
mp-705516,1.0869,Li10Sn(PSe6)2
mp-644879,4.5951,MgSiO3
mp-644852,4.6219,BaCa(CO3)2
mp-2173,4.8374,P2O5
mp-3180,3.2045,Ta2Te2O9
mp-672372,1.1699,K2S5
mp-28419,1.7916,K2TeSe3
mp-28969,3.3973,Pr2NCl3
mp-762023,3.1714,LiNiPO4
mp-676572,4.3583,NdPb6F15
mp-16118,0.9298,RbDy2CuSe4
mp-554625,1.8083,SbS2NCl8
mp-540296,1.763,Li2Mo(PO4)2
mp-754217,3.5587,SmIO
mp-26299,3.8514,LiSnPO4
mp-40373,1.9925,In14Ga3Pt2O8F15
mp-36028,0,Co2SnO4
mp-989190,3.3526,ScBrO
mp-15785,2.3491,KDyS2
mp-722977,4.7458,Na2Si(H3O2)6
mp-626566,2.7061,Ti3H2O7
mp-772561,1.1344,Li2CuSb(PO4)2
mp-17678,1.3575,Sr(ScS2)2
mp-531297,1.7294,Ga4GeS4
mp-11869,0.3881,HfSnPd
mp-770415,3.0794,HoErO3
mp-8500,2.6138,AsS2NF6
mp-18951,3.5133,LiFePO4
mp-555851,3.0513,Na2Cd3(P2O7)2
mp-555434,1.3437,As2O5
mp-555836,2.6196,Sn2PClO4
mp-23879,4.1119,Ca(HO)2
mp-6026,4.4202,Na2Mg(CO3)2
mp-15558,6.2874,Li3GaF6
mp-16590,2.6065,Tb4Si2S3O7
mp-24799,4.9596,Cs3B12H12Cl
mp-773900,3.6368,BaCa2I6
mp-985831,0.5594,HfSe2
mp-17597,1.2889,Ca(ScS2)2
mp-763184,0.6488,Li3Cr3CoO8
mp-530738,4.4386,Li10Mg7Cl24
mp-27971,5.0892,AcCl3
mp-29212,2.3274,Tl4PbI6
mp-568916,1.9502,K6InTe4Cl
mp-754496,0.5487,Li5SbS