id,formation_energy_per_atom,pretty_formula
mp-753546,-1.594040455,Li8TiS6
mp-865120,-3.470509498,NaPaO3
mp-1018738,-0.648208151,LaAl2BRu2
mp-17803,-0.973953393,Nb2Tl4S11
mp-756875,-1.865902822,Li4NbCu3O8
mp-13774,-3.307934169,NaNdSiO4
mp-754415,-3.766082386,Tb3NbO7
mp-8962,-2.435740211,Rb2HgF4
mp-1019089,-0.685424208,KMgAs
mp-20716,-1.475700854,PbSeO3
mp-3546,-0.425226258,Tb(Al2Fe)4
mp-980940,0.255721539,Ti3N
mp-771185,-2.166877302,K2Ge2O5
mp-866302,-1.99351123,BaNaP3H3(NO2)3
mp-561491,-3.244293873,KNaMg2Si4(O5F)2
mp-694979,-2.765238443,Na2TiFe(PO4)3
mp-560673,-3.101878918,NaPr2S2O8F3
mp-722867,-2.762380122,Ca3Cu5Si9O26
mp-14972,-3.299935886,Ba3Sc(BO3)3
mp-504593,-1.725590688,Pb2CCl2O3
mp-559150,-2.711115588,Na9ZrP4ClO16
mp-40830,-3.524299231,NaSr3LaTi5O15
mp-12781,-0.655350031,ScAl2Ni
mp-680387,-3.19874433,PrYSi2O7
mp-3727,-3.646156193,Nd3NbO7
mp-849430,-2.566987669,Li8MnFe7(PO4)8
mp-540927,-1.659866979,UPCl10
mp-23418,-0.747281066,Hg3(SCl)2
mp-20002,-0.580381208,FeAg2SnS4
mp-22220,-4.010270578,LaLuO3
mp-707182,-1.865582753,UAsH9O10
mp-559427,-3.658426308,BaSr4U3O14
mp-10738,-1.348285838,SmPPt
mp-694970,-2.72991775,SrLa7Cu4(SnO6)4
mp-531,-0.015932801,K4Si23
mp-756160,-3.873130993,Er3TaO7
mp-761293,-2.744278809,ZrCoO3
mp-555609,-2.509907301,Sr9Zn4(CuO7)2
mp-31164,-0.273433859,Ce7Ru3
mp-18754,-2.800504572,DyCrO4
mp-2676,-0.195023215,TaBe2
mp-569608,-1.117467299,BP2N2Cl7
mp-976263,0.702447085,Li3Nb
mp-7388,-2.017884434,NaAuF4
mp-35264,-1.685594404,Pr5AgSe8
mp-18203,-2.503364878,KGe2(PO4)3
mp-1018674,-0.450205648,DyAlZn
mp-558943,-2.728262916,LiUAsO6
mp-3038,-0.691692501,Al2HgSe4
mp-5918,-0.976186928,Hf2NiP
mp-976,-0.544935117,V6Si5
mp-680578,-0.89409978,Sm4Si3Pd4
mp-698609,-2.664797184,Sr7PrFe4(MoO6)4
mp-755109,-3.936905885,YErO3
mp-569103,-0.112662043,Mg3Hg
mp-581143,-1.81245992,RuOF4
mp-5392,-2.896709829,Mg2SiO4
mp-777814,-1.884600115,Na6Sn2O7
mp-771965,-2.144654319,Sb2P4H3O16
mp-765917,-3.019629902,LiV2OF5
mp-974030,-0.534529095,LaRh3
mp-571641,-0.667122716,PrCdPd
mp-1072,-0.314534108,Nb5Ga13
mp-5478,-0.957459441,TlPd3O4
mp-505693,-0.649833428,Mg2GeB2Rh5
mp-30892,-0.906026907,Ba4Bi3
mp-779592,-4.14772429,GdOF
mp-18974,-2.421684145,HoNiO3
mp-1061,-1.02410026,PrPt2
mp-22508,0.001819792,YMn12
mp-571177,-0.286829117,Hg3Te2IBr
mp-19421,-2.094879409,FeWO4
mp-33365,-2.911128417,CeGaO3
mp-628593,-0.757357513,Yb5(InSb3)2
mp-765702,-2.230309597,Mn6O7F5
mp-560158,-2.637742343,Na3Zn(BO2)5
mp-559115,-2.396852329,P2RhClF6
mp-849444,-2.684953591,Li2Ti2NiO6
mp-8771,-0.597563651,Lu2(NiB2)3
mp-555838,-2.523269866,SnPO3F
mp-6948,-1.334518775,KNaO
mp-1695,-0.25502858,Y2C3
mp-616587,-2.69140819,RbPO3
mp-698032,-0.344918302,Na3H7Ru
mp-1018013,-0.075087894,Ti2InNi
mp-567431,-2.638076944,ThCl4
mp-18843,-2.524098648,Ca3FeRhO6
mp-757590,-2.425402331,LiSnPO4
mp-766847,-2.481913226,WOF3
mp-977455,-2.862358655,PaAgO3
mp-1001836,-0.13272278,MnGa
mp-559587,-1.330319801,CuSb2BrO3
mp-972130,0.45184967,Tl3Cr
mp-561380,-1.264687756,Ag2Te4O11
mp-558153,-3.819510002,Ba4Nb2(OF4)3
mp-3489,-0.62435291,Nd(FeSi)2
mp-568032,-0.571657641,Cd(InSe2)2
mp-560161,-1.223145186,ZnCu3H6(ClO3)2
mp-5868,-2.36575079,Sr3Ru2O7
mp-28481,-0.901044685,Ti(ClO4)4
mp-667380,-1.575017904,Rb3Nd2(NO3)9
mp-26701,-2.53835238,Li3Sn2(PO4)3
mp-12923,-0.977036,SrPIr
mp-775679,-2.151394564,Li2Mn3CrO8
mp-976280,-1.57333675,LiBr
mp-21569,-0.61637656,HfReSi2
mp-756347,-2.459175033,Y2Pt2O7
mp-780171,-0.970366199,HgH10N2Cl4O
mp-5338,-1.517029309,ZnSeO3
mp-3118,-2.567351218,Mg3TeO6
mp-12362,-1.024565629,AgHg3SbO6
mp-9867,-0.436042023,Ba2Si3Ag
mp-31252,-1.112568116,La5(AlBr)4
mp-30495,-0.338869451,SmCd2
mp-1018079,-0.090425471,CrGaP2
mp-20920,-0.425505113,TbIn3
mp-989585,-2.79794458,Cs2KPbF6
mp-553923,-0.968096554,K2AgSbS4
mp-10862,-0.496606989,Ho2Ge6Pd
mp-754869,-1.534256021,Sr(IO3)2
mp-20225,-0.353467197,CePb3
mp-776688,-2.439754049,V2O3
mp-567394,-0.581726887,Ga(MoSe2)4
mp-4434,-3.761882153,TbAlO3
mp-680679,-1.742248044,K2Ho4Cu4S9
mp-6384,-2.330315919,RbSO2F
mp-695963,-1.453517338,K2NaH10IO10
mp-773067,-3.889650271,Er3TaO7
mp-777550,-2.897574929,LiFeF4
mp-568570,-0.953068654,CsSnI3
mp-29102,-0.828971975,Hg3TeCl4
mp-684083,-2.362196665,Sb(PO3)4
mp-19136,-2.672292482,TbFe3(BO3)4
mp-720430,-2.193909714,CaB3H7O9
mp-22498,0.088583877,CrSb2
mp-753090,-2.256609897,Li2Cu2F7
mp-16626,-0.521290665,SmAl7Au3
mp-568173,-0.580345268,LaMgSi2
mp-18823,-1.339812138,K2BaCo(NO2)6
mp-5508,-0.951059832,Th(SiPd)2
mp-570718,-0.089231578,Y2Co17
mp-561187,-2.793494616,NdGa3(BO3)4
mp-547517,-1.889149347,Sr2Cu3(ClO2)2
mp-23311,-2.041475034,EuBr2
mp-557904,-1.556469879,SbSe2S(NF3)2
mp-754304,-1.497719366,BaYI5
mp-26658,-2.287039265,BiP2O7
mp-720254,-1.952062741,Li2H4(SO4)3
mp-15108,-2.039760157,RbSnAsO5
mp-680144,-0.590478057,CdI2
mp-29825,-2.923723862,K2Si2O5
mp-863664,-0.467559585,Pm2CuGe
mp-530149,-3.456016315,Ca12Al14O33
mp-12753,-0.39016896,GdAl
mp-560163,-3.650791485,Ca4Si2O7F2
mp-16848,-0.758142358,Tl3PS4
mp-776795,-1.990898693,BaYBr5
mp-4247,-0.297194582,NaZnSb
mp-769159,-1.915233011,LiCuPH2O5
mp-6922,-3.276632939,SiO2
mp-540395,-2.26183157,Sn4(PO4)3
mp-570902,-1.603541386,Pr6RuBr10
mp-554906,-2.147291807,Zn2BiPO6
mp-644875,-0.540142775,Ba2(InAs)5
mp-973869,-2.09207189,LaCdO3
mp-560544,-2.196970722,Ba3Zn5In2O11
mp-27636,-0.916398235,Cs2SnI6
mp-27264,-3.465889168,NaTiF4
mp-30850,-0.718051299,TaPt3
mp-768414,-1.436017456,Li4VS4
mp-6732,-2.959557602,La2MgIrO6
mp-774848,-1.318521115,H10SeO8
mp-28772,-0.997769048,SbSCl9
mp-27505,0.001469599,Fe3Sn2
mp-779309,-2.967299167,V4(OF3)3
mp-23717,-2.672911313,Ca2MgP2(H2O5)2
mp-981550,-2.354494603,RbTmO3
mp-776749,-2.218252669,Li2V3CuO8
mp-542496,-0.324715412,Ca6Ag16N
mp-12885,-2.787227165,BaAl2Sb2O7
mp-21165,-0.326509502,PdSe
mp-11490,-0.265621335,Li2ZnSn
mp-32742,-1.632298162,U16N25
mp-530217,-4.125517519,PrZr3F15
mp-26312,-2.481608275,Li4Cu(PO4)2
mp-553912,-2.526457456,NaZr2(AsO4)3
mp-774386,-2.327865909,Li2Cr3P4(HO4)4
mp-22720,-3.163066353,RbSr2Nb3O10
mp-9248,-0.772861188,Cu2SiS3
mp-752686,-3.815870705,Sm3TaO7
mp-721426,-1.713828101,NaPH7O6
mp-7429,-0.446009623,Ca(ZnSb)2
mp-2271,-0.362068938,NaPt2
mp-12872,-0.214887479,ErIn5Co
mp-510084,-0.814672124,Ho2Ti3Si4
mp-644332,-3.040037809,KMnF3
mp-20879,-0.346276065,CaHgPb
mp-975606,2.348414865,InN3
mp-570700,-0.964724448,Hf3Tl2(CuSe4)2
mp-7000,-3.278690145,SiO2
mp-696275,-1.045862533,SnH8(NCl3)2
mp-5226,-1.825023742,K2SeO4
mp-754515,-0.532724075,BaMgGe
mp-569754,-1.418174558,Ba7Sn3Se13
mp-2349,-0.299732006,YCd3
mp-752410,-2.836943555,Ba2GeO4
mp-504601,-1.541514225,Cs2ZnO2
mp-19765,-0.294828637,In2HgTe4
mp-773202,-2.065098026,Li5Mn5(SbO6)2
mp-569424,-0.380960855,Cr2B
mp-14424,-1.849146785,Sr(AlS2)2
mp-556518,-1.232466516,K2Pd(NO3)4
mp-560328,-0.55686412,Ag15P4S16Cl3
mp-3375,-0.886514781,Nd4Ge3Rh4
mp-555246,-2.678928861,Ba3LuRu2O9
mp-975292,-2.004105751,RbMoO3
mp-13534,-0.390740758,LaZnNi
mp-971875,-0.112481922,UGa
mp-771907,-2.085180947,Li4Mn5Sn3O16
mp-774557,-3.059628624,Er2TeO6
mp-5061,-2.325821929,Li5ReO6
mp-643356,-1.769550169,SrH2Br2O
mp-555269,-0.423267854,Ag3SbS3
mp-17388,-0.372912906,Yb3Cu6Sn5
mp-862361,-0.502966881,Sc2NiOs
mp-28671,-0.938016382,ZrTe2Br5
mp-5105,-0.896880422,La(SiRu)2
mp-28256,-0.411587568,V2Se9
mp-707929,-1.768251317,LiBH2C4O9
mp-569766,-0.084411866,TeI
mp-757053,-2.583074861,LiNb(PO3)4
mp-772215,-2.405545605,LiNb8O10
mp-772765,-2.763033832,K2PrPCO7
mp-8016,-0.627276996,AlCuSe2
mp-17217,-0.254965409,Tl3GeTe3
mp-989528,-0.14505422,Rb2AlInH6
mp-17989,-1.332368399,K3PS4
mp-560216,-2.61281641,Cs2GeP4O13
mp-777731,-2.110806142,Ba6YBr15
mp-4326,-2.217253738,KErS2
mp-867961,-1.648871474,Sb16Cl4O21
mp-558566,-3.512209128,Ba5Er2ZrAl2O13
mp-743878,-1.563439137,Fe2Te4H3ClO12
mp-11494,-0.175199072,LuPb3
mp-569779,-1.043291465,ScSbPd
mp-24292,-0.685729852,Sr2H6Ru
mp-23443,-0.529960065,MnTlI3
mp-8306,-0.715170447,Ba3FeN3
mp-752615,-1.531199039,Li4(CuO2)3
mp-1016108,-1.035050007,TiZnN2
mp-1129,-1.051199642,ScIr
mp-643458,-2.072135872,LiHSO4
mp-1869,-0.643377124,GaPd2
mp-27576,-3.325504487,Sc2GeO5
mp-756393,-3.419831808,Er2Nb2O7
mp-23349,-2.591515029,Bi(BO2)3
mp-23944,-1.293502007,BaH6Cl2O11
mp-770607,-2.757660101,Li3VSi4(HO6)2
mp-765860,-1.500082237,Fe2CoO4
mp-675416,-3.224324011,Sr4Nb2O9
mp-10388,-0.737687271,Nb5(PPd)4
mp-19153,-2.950944705,Lu2Mn2O7
mp-685991,-0.592334961,Li5SiP3
mp-29152,-0.933110434,Zr2CoP
mp-21526,-0.239250361,KPb
mp-4104,-3.531995486,HoPO4
mp-975738,-0.425123142,Pr(BOs)2
mp-770687,-1.988208728,LiCr2O5
mp-625850,-1.237146514,H7NO6
mp-753751,-2.108071629,LiAgF2
mp-27144,-2.278141618,TlPO3
mp-23396,-1.084213909,MoNCl3
mp-774736,-0.960468397,LiCuS
mp-561218,-0.644709954,KP2Au5S8
mp-625509,-1.022298583,H3BrO
mp-9007,-0.400146999,Na6P4W
mp-18584,-3.365276745,Ho2SiSeO4
mp-5025,-1.507391661,Zr2CS
mp-29912,-0.263699941,Sb2MoSe
mp-14500,-0.681479302,Sr(As3Pt2)2
mp-28144,-2.299010985,SiBi2O5
mp-2795,-0.807515404,ZrC
mp-776432,-2.159649021,Na2LiCuPCO7
mp-570231,-1.248427846,CsCdBr3
mp-12774,-1.015773483,ThIr
mp-997033,-0.076384963,AuBrO2
mp-1019316,-0.232612061,Tc2N
mp-28356,-1.651181533,U6Cu2S13
mp-556869,-1.62335467,Sb5IO7
mp-554657,-2.674974574,Na2Tl2B10O17
mp-1547,-0.690240644,NiS
mp-11456,-1.096668103,HfPt3
mp-558268,-2.82242247,Ca4Si6Pb6Cl2O21
mp-16267,-2.048366902,Dy2CdS4
mp-19743,-0.534035303,LaFeGe3
mp-13364,-0.274655941,CaZn2
mp-768156,-0.98116354,Li7(SbS)2
mp-685036,-3.3350951,Al2O3
mp-1119,-1.109939974,Nd2Te5
mp-22215,-2.250672589,Ba2Y(CuO2)3
mp-1013552,-0.643909617,Sr3P2
mp-767433,-3.062190451,LiV2OF5
mp-771906,-2.374165836,Li2AlCoO4
mp-764856,-2.664476465,Li6MnV3(PO4)6
mp-675801,-1.879256938,KNbCl6
mp-755219,-2.698623653,ScTlO2
mp-31081,-0.332152267,Sc(MnAl2)4
mp-7829,-0.550684819,MnNbSi
mp-754263,-3.142179455,Ho2CuO4
mp-770735,-1.680873336,ZnCrO4
mp-17708,-2.00026002,Ge3Sb2O9
mp-770274,-0.164239799,NiP4
mp-777480,-3.076982862,Li2Ti3MnO8
mp-777909,-2.578322366,Li2Cr2(PO4)3
mp-7361,-0.425853298,Sr(CoGe)2
mp-850944,-1.746401234,Li21(Co4O9)2
mp-645208,-2.197400153,Sr2Co2O5
mp-9868,-0.686058068,KCu3S2
mp-10288,-1.470188345,LaCuTeS
mp-763610,-2.774539158,LiCrSiO4
mp-18585,-0.378681739,RbAgSe4
mp-26389,-2.799093305,LiNb2(PO4)3
mp-20760,-0.359964331,La2In
mp-676519,-3.228282782,Sr6Nb7O21
mp-1926,-0.103871018,HoFe2
mp-31379,-0.642261405,Zr2Sb
mp-865300,-0.662506264,Tm2AgIr
mp-558849,-1.012722023,CdBiS2Cl
mp-2680,-0.563901735,LaB6
mp-978285,0.179736975,Mg3Mn
mp-3349,-3.514399385,Sr3Ti2O7
mp-772431,-1.427146499,CoH8(CO5)2
mp-13380,-0.746662119,HoZnRh
mp-40451,-3.14349164,NaGd3Ti2(SbO7)2
mp-753056,-3.4916386,HoBO3
mp-684674,-1.06221974,Cr5S8
mp-29164,-2.280314092,SrBiO3
mp-23487,-1.372992143,KIO3
mp-556418,-1.925101312,AlSCl3O2
mp-676330,-1.855486818,Nb12Br17F13
mp-12662,-0.007929543,Re24Mo5
mp-695951,-2.081678641,LiAg2P3(HO5)2
mp-625913,-1.39907089,TeHO3
mp-674531,-0.533121363,Li5GeP3
mp-643245,-0.161210002,K3MnH5
mp-770575,-2.713741605,LiCrPO4F
mp-971924,-0.334004311,DyYAg2
mp-555332,-2.870022103,BaCu(SiO3)2
mp-573908,-0.431118997,Sr11(MgSi5)2
mp-31084,-0.722253147,ZrGe2Rh
mp-973256,-0.309084097,LaMgTl2
mp-735475,-1.923289067,CoB12H28(NO15)2
mp-5659,-0.820974038,Ti3SiC2
mp-974959,0.170320655,Rb3Li
mp-768788,-2.408069868,Li3Bi(BO3)2
mp-22079,-0.491021446,AsRh
mp-37947,-1.789142618,Na4C2O5
mp-558689,-2.687552772,Ba2PrIrO6
mp-571452,-0.521409407,KPSe3
mp-770392,-2.041191286,BaLaBr5
mp-961678,-0.792086075,ScCoTe
mp-14629,-3.002156042,Li2EuSiO4
mp-775900,-2.38979581,NaLiCu(PO3)3
mp-1575,0.016279256,CaC2
mp-11873,-0.355666181,TlAsPd5
mp-18859,-2.80570175,Sr5Cr3O12F
mp-6528,-3.428755144,Cs2NaAlF6
mp-34322,-3.794075668,Dy2Ti2O7
mp-999047,-0.365178865,Ti2MnSi
mp-554483,-1.493869451,KCd3H8Cl7O4
mp-769456,-2.302550449,Na5Fe2P2(CO7)2
mp-29246,-0.456909491,Cd2P3Cl
mp-11404,-0.577907075,PrGa
mp-3197,-0.87319204,TbAlPd
mp-770779,-2.43982203,VCrO3
mp-542727,-0.166734444,Cr2(Co7B2)3
mp-555359,-3.041446368,KMnF3
mp-4997,-1.357677218,ZrGeS
mp-775336,-2.027048236,Li4V2Co3Sb3O16
mp-28988,-0.715839259,In7Br9
mp-648414,-0.980585575,V2PS10
mp-769232,-2.105452488,Dy2(SeO4)3
mp-569564,-0.341514112,Th2Al2C3
mp-561303,-0.818267374,NaSb(PS3)2
mp-753055,-1.98570079,TbBi5O9
mp-680183,-2.013928446,Te5As2Br4O5F26
mp-759069,-1.931122135,B(HO)3
mp-3854,-0.628261956,Y(MnSi)2
mp-5305,-0.400014783,CuAsS
mp-760447,-1.164882486,Tl2(PbO3)3
mp-1207,0.077263269,NdFe2
mp-505600,-0.407432917,Ta3SiNi2
mp-19239,-2.864153007,Mg6MnO8
mp-570122,-0.139019344,Cr3Te4
mp-780109,-2.549780304,Li4Cr5(P3O11)2
mp-21582,-1.605984097,Nd4In5S13
mp-867859,-0.417157041,Sm2IrRu
mp-757002,-2.782695061,KZrPCO7
mp-2050,-1.111446773,HoSb
mp-20241,-0.76633279,Mg4P6Rh7
mp-28514,-1.179008224,Ba(BrO3)2
mp-556994,-3.204257652,SiO2
mp-976008,-0.082723704,NdTmMg2
mp-756935,-2.077670018,Li3SbO3
mp-2396,-0.219458952,HoCo2
mp-780196,-2.581512945,LiMnSiO4
mp-16771,-1.778378913,MgSe2O5
mp-634984,-0.46902505,Mg5(Si8Pd5)2
mp-767526,-2.14949233,Na3CuPCO7
mp-992,-0.484077625,CaGa2
mp-765902,-1.049925518,ZnNi4O5
mp-758842,-1.501734865,NbH14C4NO14
mp-752773,-2.712881961,Li4CuF5
mp-27742,-1.437769358,K2CdO2
mp-984660,-0.465139393,Dy2InHg
mp-766163,-2.255149005,TiSn9O20
mp-12788,-0.809034783,Nd3Au4
mp-862731,-0.337084357,Pm3Ge
mp-755707,-3.264871404,K3LiTi7O16
mp-677237,-3.931511294,Y3U2O10
mp-2496,-0.169167141,Cs4Sn23
mp-23197,-0.62965286,TlI
mp-776760,-2.697078684,Ti3FeSb2(PO4)6
mp-555860,-3.206474694,EuTiClO3
mp-989563,-1.781081145,Rb2NaTlCl6
mp-23476,-0.855987333,Cd7(P2Cl3)2
mp-30234,-1.802064499,Cs2WCl6
mp-7618,-3.518854074,Cs3YF6
mp-18450,-0.27620994,Lu(FeGe)6
mp-557531,-2.271540547,Pb2S(O2F)2
mp-7972,-2.971381949,RbLaO2
mp-557806,-2.853945633,Er2Tc2O7
mp-559909,-2.378553486,Sr3Ru2O7
mp-1020628,-2.816614319,SrGe(PO4)2
mp-962078,-0.123513045,CaCdSi
mp-754226,-3.99368905,YLuO3
mp-22981,-0.987374457,TlIO3
mp-555202,-2.411477688,KTeHOF4
mp-744639,-1.322678208,Cr2Hg2H2O9
mp-17942,-0.563491578,MgNi2P
mp-559442,-1.77244911,Ba2Ru7O18
mp-7013,-3.611493454,Ho2Be2SiO7
mp-32662,-2.184664592,WO3
mp-703352,-1.904999196,UP2H6O7
mp-13510,-0.778695152,Ho4In(NiGe2)2
mp-733844,-2.396317989,Na3GaP2H2O9
mp-4632,-3.342152417,Sr3(PO4)2
mp-558375,-1.889764834,Ce3CuSiS7
mp-559584,-2.892119728,LiCaNiF6
mp-760231,-2.53905611,LiSn2(PO4)3
mp-7812,-2.097868078,GeO2
mp-622171,-2.03551314,VSb2O5
mp-12972,-0.722394647,Zr6Sb2Pt
mp-861991,-0.16364118,PaMn2Al
mp-8187,-1.59642124,K2ZnO2
mp-763965,-2.664553496,V2(OF)3
mp-560687,-0.566063836,Nb3Te8I7O
mp-773547,-2.699439261,Li3Fe2OF5
mp-4672,-1.484110575,TbPS4
mp-557778,-3.050222513,RbNbSiO5
mp-31474,-0.212448397,Rb2Hg7
mp-1009496,0.484972046,OsN
mp-773116,-2.648735875,La20S29O
mp-769409,-3.430927369,Y4Ga2O9
mp-770759,-1.985793225,LiBiCSO7
mp-764036,-2.113558471,Li3Mn3CrO8
mp-703398,-1.171044551,CuH20Se2(NO7)2
mp-7128,-1.727513582,Cd(AsO3)2
mp-569265,-0.571559868,Mg3Pt
mp-3502,-1.625467721,Zn2Te3O8
mp-976159,-0.450083864,PrErIn2
mp-556920,-2.385295066,Tb9(SbO)5
mp-864646,-0.319842958,ErAgHg2
mp-559701,-3.158363864,LiV2F6
mp-849783,-0.817856813,TeH14C3S3(N3F2)2
mp-8769,-0.695180095,Rb2CoSe2
mp-1018824,-0.564976955,NpSbTe
mp-978275,-0.130536261,MgB7
mp-606377,-0.350830986,Ce2Zn4Ru
mp-4711,-1.668684908,Li2CuO2
mp-9755,-3.080560373,HfGeO4
mp-707206,-1.550870978,TeP6H30(NO4)6
mp-690531,-2.696519496,La5Mn5O18
mp-753610,-1.644898647,BaCaI4
mp-770343,-2.582114971,Li3V(BO3)2
mp-2489,-0.122808832,UC
mp-632623,0.706818523,MnIn2W
mp-768122,-2.082110937,NaBiPCO7
mp-756908,-1.990612458,Li3SbO3
mp-755714,-3.100472644,SrEuO2
mp-569296,-0.54348154,Gd(NiSb)2
mp-962062,-0.206639702,BaSrSn
mp-867773,-0.30708229,DyMgCd2
mp-14448,-1.061521431,Ba2SiTe4
mp-779907,-2.23632819,LiMnPH2O5
mp-775164,-2.56396825,Li2NbCr3O8
mp-7577,-0.614656744,CoSi
mp-679944,-1.085421529,Li4Re6S11
mp-28201,-0.957536505,Sr4(PPd)5
mp-680172,-0.590605796,CdI2
mp-24409,-0.189528861,PH4I
mp-7810,-0.385910282,UVC2
mp-562283,-1.65744093,GePb3O5
mp-675189,-1.126021401,Ho7(CuTe4)3
mp-540310,-2.610509285,Li2Mo(PO3)5
mp-864984,-0.148264135,MnV3
mp-10481,-0.387829463,RbAg3Te2
mp-752717,-3.792304135,La2SiO5
mp-978536,-0.470722422,SmHoHg2
mp-23896,-1.625072674,LuHCl
mp-865973,-2.73095196,PHPb2F10
mp-8046,-1.306349189,Ta4N5
mp-37836,-2.107199591,Al(HO)3
mp-758234,-2.348913022,P2Pb3O8
mp-21017,-0.56957191,Y3PbC
mp-722369,-2.535321116,Na3B5(HO5)2
mp-9694,-0.894342243,Tm3(GePd)4
mp-867953,-1.719868525,Ba2CaI6
mp-42599,-3.390972707,NaYTiNbO6F
mp-631406,0.591868736,ScTl2W
mp-743571,-2.041295356,Mn2Si(H2O3)2
mp-570651,-0.257165562,Al17Mo4
mp-620032,-0.829050946,Ti2Se
mp-752638,-1.698799522,LiCuCO3
mp-14786,-0.218007052,Ba(Cu2As)4
mp-554433,-3.242631873,KAl(SiO3)2
mp-850445,-1.680896801,Na3Zn4As3H12O19
mp-673126,-2.492388885,LiSb(PO3)4
mp-8234,-0.883388631,BaTe3
mp-756672,-2.672228781,Li4Si4Bi2O13
mp-764111,-2.570055248,NaFe(PO3)3
mp-22517,-1.442581214,EuYSi4N7
mp-17077,-3.772706574,K2YF5
mp-19432,-2.423854403,KNaV2O6
mp-779328,-1.126259853,NaCu2O3
mp-1019581,-2.252544633,CaS3O10
mp-19950,-0.808661153,Dy2Ti3Si4
mp-696794,-1.538770498,RbHSeO4
mp-3718,-2.86691354,ThTeO
mp-18686,-0.594813167,ZrCr5P3
mp-779511,-2.886372812,Ba2MgO3
mp-27346,-1.504045812,Al2Hg3Cl8
mp-28567,-2.948497457,LiBiF4
mp-26883,-2.88825748,Li3Ti2(PO4)3
mp-772867,-2.58778645,La2Bi2O7
mp-9515,-3.2955368,Al2SiO5
mp-18684,-3.109470355,KPF6
mp-15901,-3.234166702,Li2LaTa2O7
mp-972367,-3.2407078,UAlO3
mp-19361,-2.144653283,Cr2(SO4)3
mp-15701,-1.335448502,MgSiN2
mp-559779,-2.161932873,Nd3SiS6Cl
mp-777698,-2.450874482,V2O3
mp-10209,-0.750473831,Y3Al3NiGe2
mp-764701,-2.054647798,Li8Mn5O10
mp-763206,-2.14049659,Co3OF5
mp-556185,-2.782948955,RbNaTiO3
mp-573119,-1.366589912,BiRhO3
mp-2611,-0.504927543,BaGe2
mp-680171,-1.48686089,KEu2CuS6
mp-776684,-3.045071283,Li3FeF6
mp-21158,-0.778904512,CeAlPd
mp-22779,-0.999228352,YbSnPt
mp-676564,-4.262512519,NdTh9O20
mp-891956,-3.037742444,Ca10V6O25
mp-2967,-0.479120698,La(CoB)2
mp-27384,-0.733315851,AgIO3
mp-567753,-1.420254676,La3CuSnSe7
mp-774243,-2.19965092,LiCrSnO4
mp-684588,0.175418447,Sn3P4
mp-21048,-0.547453415,CrP
mp-776523,-2.979958974,NaLi3Ti2Al2(PO4)6
mp-675930,-0.432994248,In3AsSe3
mp-983908,-0.611449764,Er2ZnAu
mp-980200,-0.31415167,Zn3Rh
mp-13068,-4.049782151,Lu2O3
mp-2333,-0.782605789,NdPd3
mp-867767,-0.822696129,BeSiRh2
mp-23318,-1.059178182,BiSCl
mp-6127,-3.029313434,BaCu(Si2O5)2
mp-4428,-3.445829719,CaSiO3
mp-775327,-2.450390691,Li2MnV3O8
mp-6621,-2.883581566,Ba2ErRuO6
mp-975359,-0.266798124,Rb(FeAs)2
mp-2643,-0.125754371,Ti3Cu4
mp-569264,-0.253010705,NdIr5
mp-21023,-0.78033309,Ti3SnC2
mp-765463,-2.179493409,ErH3(SO4)3
mp-557171,-2.475644086,Na2Cu(PO3)4
mp-570777,-0.420368062,SrSi
mp-17539,-2.605685026,KAsOF4
mp-865977,-0.27419667,LuCdAg2
mp-26446,-2.263663429,Sn4(PO4)3
mp-861624,-0.470640874,LiLaHg2
mp-999208,-0.279819961,Sc2MnSi
mp-22924,-0.287085775,NaBi
mp-19514,-2.801728837,Sr2CrO4
mp-753315,-2.718782784,Mg3ZnO4
mp-989504,-1.867897265,Na2LiNF6
mp-23227,-0.212614785,CuBr
mp-622108,-2.210191482,Ba2TmCu3O7
mp-570749,-0.494091203,YbHg2
mp-768592,-2.46437968,Na2SnBPO7
mp-568231,-1.210605721,RbMnBr3
mp-28345,-0.955996286,Zr6CI12
mp-769377,-2.042552236,SbSO4F3
mp-1016107,-0.52306211,Hf6Zn6N
mp-769383,-2.201737786,RbB3Te2O9
mp-569247,-0.656012484,Zr(FeSi)2
mp-2384,-1.57775508,LaP
mp-780496,-2.548670387,Fe3OF5
mp-499,-0.459432218,AgO
mp-760491,-3.903085177,Ce4Y2O11
mp-756522,-2.043869168,CuTe(PO4)2
mp-779884,-2.855483174,Sr5W3O14
mp-779282,-1.823758048,Li9Bi5O13
mp-27980,-3.690738815,U(OF)2
mp-561469,-2.118485361,Nd6S4N3Cl
mp-557830,-1.463171687,Na2Bi5AuO11
mp-567873,-1.141342981,RbSmGeSe4
mp-1006330,0.153188145,Ce3Cu
mp-973957,-0.279641957,La2ZnAg
mp-769384,-3.216929117,Li3NbOF6
mp-639511,-3.277555788,SiO2
mp-780412,-2.176160613,Na6Bi2B4AsO16
mp-768878,-1.769211502,CuReO4
mp-865108,-0.356468884,NaSmHg2
mp-864841,-0.336795806,Nb4Ni2C
mp-768292,-2.245480016,Li2BiBO4
mp-8066,0.076888842,Cu3As
mp-553374,-1.82082275,Cs4Sb2O5
mp-558239,-3.358214939,Rb4U5O17
mp-9639,-1.745595644,BaCu(SeO3)2
mp-863671,-0.202489396,Pm2CuRu
mp-625961,-1.064353755,H5IO6
mp-559123,-2.974408536,YSiNO2
mp-978553,-0.082906862,SiAs2
mp-862668,-0.309908045,CeHg3
mp-18837,-2.590312965,KSc(MoO4)2
mp-849656,-2.533037091,Li5Co4(Si3O10)2
mp-29209,-0.600209118,Ba(MgBi)2
mp-849260,-0.417129619,ReH8(I3N)2
mp-10480,-0.325055522,CsAg5Se3
mp-21101,-0.773906641,U(SiPt)2