id,formation_energy_per_atom,pretty_formula
mp-560411,-0.610553569,CdSb6(S2I)4
mp-9744,-0.939932815,BaAsPd
mp-776761,-2.204675322,LiCr(SO4)2
mp-548,-0.033551412,NbCr2
mp-770694,-2.18186143,Li6Cr2O7
mp-767576,-2.204403791,Li6MnO4F
mp-864622,-0.701220231,Nd2IrPd
mp-21565,-0.276363528,Tb(FeGe)6
mp-674521,-3.782198837,Dy2TiO5
mp-31065,-2.278028822,Sc2(SeO3)3
mp-606510,-0.74415434,CsTaI6
mp-1266,-1.053466089,Na2Se
mp-973364,0.021510033,Mg
mp-974816,0.655826099,Rb3Sm
mp-697788,-2.283519886,MnP2O7
mp-973155,1.39378878,Ge3C
mp-18942,-2.605284351,VP2O7
mp-541827,-2.975909878,Ba2Zn7F18
mp-31304,-1.067177096,Zr(TeCl)6
mp-2621,-0.341320721,ErAg
mp-20147,-1.037038808,ZrMnP
mp-755691,-1.755596487,Li2BiO2
mp-38916,-3.588434623,Y3Pb4F17
mp-582719,-0.370143132,Ta6Ni16Ge7
mp-1013917,-2.414629148,LiMn3P3O13
mp-696384,-1.507501947,K2CuH4(Cl2O)2
mp-770152,-2.499014876,Li4Ti2Mn3Cr3O16
mp-10877,-0.260304181,Ca(Al2Cu)4
mp-1019896,-2.896003909,La5S4NO2
mp-555036,-2.865423069,KCrF3
mp-770491,-2.208597411,Li3AlNiO4
mp-776479,-1.516607281,BaYI5
mp-11390,-0.164338255,LiGaSi
mp-1018952,-0.441673906,PrZnIn
mp-634418,-2.81675941,NaCaSiHO4
mp-3499,-0.328468407,MnSbPd2
mp-27758,-2.990559461,AlTl2F5
mp-20433,-0.028412696,Ti3In4
mp-571098,-0.671737682,Lu(FeSi)2
mp-22324,-1.133113719,TbGePt
mp-11254,-0.764234989,NdAu
mp-10902,-0.328801532,PrAl
mp-558920,-2.847385296,NaNbO3
mp-9102,-1.013652518,RbVP2S7
mp-1427,-4.142604022,Lu2O3
mp-14743,-1.09432848,Ba3WN4
mp-769656,-3.367025729,Ba2Ce2O5
mp-568643,-0.029542766,RbC8
mp-18157,-2.802809266,SiP2O7
mp-28328,-0.781876219,RbI3
mp-707879,-1.261819184,K2Cu5H8(Cl4O3)2
mp-767076,-2.397976081,Sn(PO3)2
mp-29633,-0.609674686,LiGePd2
mp-21350,-0.747960873,Pr2MgGe2
mp-765701,-2.381064885,Li4V3FeO8
mp-12932,-3.757544015,TbTaO4
mp-22945,-0.728198773,TeRhCl
mp-567401,-0.477353677,Tb4Zn5Ge6
mp-769484,-2.188899172,NaMnPCO7
mp-761164,-3.220345564,LiNbF5
mp-28380,-1.371816774,Rb3TlO3
mp-8311,-0.244612357,Si3NiP4
mp-29091,-0.905212804,Ti(CuS)4
mp-14396,-3.085153028,Mg3(PO4)2
mp-776452,-3.182841517,Ca2Ti6N2O11
mp-11225,-0.416153832,TbAl
mp-758356,-0.661673511,P2H12N7Cl
mp-675846,-4.18144262,Ca5ThF14
mp-11327,-1.02806783,Rb2Se
mp-12454,-1.708141163,ErCuS2
mp-11231,-0.41714418,YAl3
mp-30843,-0.640772,Sr7Pt3
mp-625159,-0.895209979,H3ClO5
mp-631411,0.617684111,CaTa2Tl
mp-27421,-2.545510817,RbBiF6
mp-705030,-2.505600931,LiCr(PO3)5
mp-867902,-0.843478706,LiSiRh2
mp-764837,-2.97789108,Li2VOF4
mp-554669,-3.190954142,Ba3Ta2CdO9
mp-779065,-1.928796684,Li2Mn2CoO6
mp-971738,-0.113877576,ZnCuNi2
mp-705486,-2.112564493,U3Cu2H10(CO10)2
mp-686585,-2.856652641,K6Al11Si13Ag5O48
mp-589,-0.063781267,TbFe2
mp-863686,-0.575291208,Pm2HgGe
mp-997180,-1.746459306,VCuO2
mp-761143,-2.463955845,KLiSb(PO4)2
mp-8190,-0.930861252,Tl2SiS3
mp-30621,-1.02809991,DySi2Rh3
mp-646878,-0.771613096,In4SnS4
mp-770497,-2.174695519,Fe3CoNi2(PO4)6
mp-780328,-1.753393391,Fe5(O4F)2
mp-706709,-2.83520002,Al4P3(HO5)3
mp-19003,-2.649904954,MgV2O5
mp-772703,-1.211864587,Li4CoNi5O12
mp-1020162,-2.862371539,Na4Mg3P4O15
mp-698361,-0.701843227,CuH36C8(N5O4)2
mp-684861,-3.180702953,NaYbTiNbO6F
mp-656880,-2.350153458,Y2Mn2S2O5
mp-558374,-3.261082483,SiO2
mp-542484,-0.251579782,Sr5Cd3
mp-777945,-2.075157781,TiMn4O10
mp-982881,0.030753716,PmTm3
mp-13875,-2.541944831,Al8(Pb3O7)3
mp-561543,-3.574627103,BeF2
mp-978833,-0.491631557,SmYIn2
mp-755091,-1.714738173,Ti2Cu3Te3O16
mp-866713,-1.072055059,ReTeSCl4
mp-10284,-0.690986066,YSi3Ni
mp-2178,-0.614031578,YbGa2
mp-8998,-0.291435166,TaNiTe5
mp-559644,-0.940583636,K2Cu(PS3)3
mp-560082,-3.090784919,Ho2Ge2O7
mp-640067,-0.280538431,Ni4B3
mp-15887,-2.787629839,Sr2YIrO6
mp-677468,-3.259173622,Ba16Tb8Nb5(SnO16)3
mp-773911,-2.876218512,Ti2Sn(PO4)3
mp-677392,-3.729003104,Yb2Ce8O19
mp-20563,-0.615467322,Ba(CoAs)2
mp-549728,-2.062287355,DyZnPO
mp-780618,-1.66956508,Na2BiO3
mp-553927,-1.268982807,Pu(IO3)4
mp-11476,-0.874358797,HoIr
mp-23556,-1.878113254,Rb3Mn2Cl7
mp-1001022,-0.277570395,Cu2PPd2
mp-773120,-1.832833544,Mn3CrO8
mp-779125,-2.843133969,DyP5O14
mp-973245,0.572678946,KLu
mp-568557,-1.091031133,RbTaN2
mp-630372,-0.491605471,Tb4Ga6FeGe6
mp-622122,-1.937319747,U2(P2O7)3
mp-37614,-2.736121704,Al2NiO4
mp-543040,-1.604017804,Ga2Te3(HO2)6
mp-755779,-1.521079742,CaLaI5
mp-505448,-1.05374361,NaHfCuSe3
mp-28327,-1.102262888,LiGaBr3
mp-696088,-1.298138358,Sb2H20(Cl4O3)3
mp-567573,-1.563980424,Rb2UBr6
mp-569086,-0.500025719,DyInNi
mp-18313,-3.443143383,SrSiO3
mp-756983,-2.416175448,Li10Cu(SiO5)2
mp-531811,-1.991719904,Ho2CdS4
mp-608543,-0.413008314,Sc2CrC3
mp-863420,-1.893553921,Rb4H4C3O10
mp-756519,-2.148611764,Li(ReO3)4
mp-850213,-2.385271257,Yb4Br6O
mp-769344,-3.338500646,Ba4Ta2O9
mp-555763,-1.137786138,ZnS
mp-30334,-0.338519809,Th2Al7
mp-1020706,-3.613475852,SrY2Si3O10
mp-556339,-1.074820362,Hg3AsO4
mp-195,-1.041091416,HoPt3
mp-631325,0.969979006,ScHgW2
mp-973199,0.182497993,Sb3Pb
mp-22723,-0.694270136,DyInIr
mp-976184,-0.791549633,Hf4Co4Si7
mp-753156,-4.110264978,La2Th2O7
mp-776165,-0.375144993,AgAuO3
mp-921,-0.741340377,YRh2
mp-19086,-2.091995745,BaCoO2
mp-770474,-3.743194218,La4Ti3O12
mp-776765,-2.55726656,V3CrSn2(PO4)6
mp-10140,-0.352670402,Sc3TlB
mp-17447,-3.325724738,Sr10P6SO24
mp-6995,-3.457650276,SrAl12O19
mp-542389,-0.443452361,Dy(SiNi5)2
mp-573812,-0.301267603,Cs3As11
mp-6328,-1.177093593,Na2Ti2Sb2O
mp-505799,-2.358052209,P2Pb3O8
mp-983567,0.060725104,CaAc3
mp-542729,-0.438405027,Dy3Ni13B2
mp-1013749,-2.500947164,Li3Ti2(GeO4)3
mp-14827,-0.880470324,Li7NbN4
mp-15326,-3.062284679,Sm3IrO7
mp-863389,-2.384184953,Nb16Tl16O53
mp-30129,-1.053382494,Li4TaN3
mp-4575,-2.578052092,MgGeO3
mp-768747,-2.312190567,Li7Bi(BO4)2
mp-3650,-0.472777135,HfCu2Te3
mp-690760,-0.437870551,TiH
mp-11887,-2.894142598,K2U3(TeO7)2
mp-778252,-2.338355145,V5O12
mp-11551,-0.932146568,Tb2Pt
mp-705331,-2.241576828,LiNiP2O7
mp-560584,-1.472533133,Si2Ag6O7
mp-35893,-1.686641927,KAlO
mp-20209,-2.820218603,Eu2ReO5
mp-571286,-0.204891878,SiC
mp-656,-2.201751072,LuS
mp-555901,-1.909573101,KCuCO3F
mp-17765,-3.015764421,Ta2ZnO6
mp-999207,-0.176723916,Sc2MnSn
mp-983230,0.742226053,Ga3B
mp-8704,-0.860219073,K3SbSe4
mp-21135,-1.523991147,Pr3InO
mp-540731,-1.867639382,MgB4(H9O8)2
mp-559005,-1.62478781,NaAsH4O5
mp-542233,-0.274804267,Rb3As11
mp-9767,-0.826162773,BaAs2Pd
mp-610972,-0.292663599,MnGePd
mp-556025,-1.101366932,MgH8C2S2(NO2)2
mp-642737,-1.115761004,Cu2H3ClO3
mp-1723,-0.117816894,UAl3
mp-864650,-0.300746986,Ta2OsW
mp-242,-0.451444624,SrB6
mp-17402,-0.947564038,Yb11Sb10
mp-30,0,Cu
mp-974336,-3.144962587,HoO
mp-19434,-2.889246501,Pr2NiO4
mp-23090,-1.929207811,La3Si2S8I
mp-22046,0.094016626,B
mp-1016854,-1.426724032,MnCdO3
mp-562490,-3.273873703,SiO2
mp-16609,-0.42541169,Si3Os2
mp-3694,-1.510203845,NdPS4
mp-13843,-1.967637079,Li2TeO4
mp-28864,-1.289774556,Y6IrI10
mp-17661,-2.936561348,RbNd(PO3)4
mp-30749,-0.732067858,Zr5Ir3
mp-641526,-0.032836565,Fe13Co3
mp-6980,-1.617465026,ScCuS2
mp-27404,-1.517841403,As3(HO2)5
mp-4769,-2.804164593,SiP2O7
mp-570078,-0.387841282,La4MgIr
mp-30592,-0.131655444,CuNi2Sn
mp-571638,-1.410336779,Rb2Cu(BrCl)2
mp-764341,-2.563728316,Li3FeSiO5
mp-984729,-2.988053692,BaSr3O4
mp-554517,-2.921967253,NaMnF4
mp-33940,-2.204736206,Mg2PtO4
mp-759322,-2.828618893,Li2Nb4ZnO12
mp-759413,-1.689925504,ZnPH4NO4
mp-24338,-1.072358325,Sr5As3H
mp-31034,-4.522903573,ThF4
mp-704634,-2.654726654,Ba2Nd2Fe4O11
mp-6231,-3.127995971,Ba2ErSbO6
mp-29391,-1.759770287,SbCl3F2
mp-1018091,-0.408790535,CaGaSnH
mp-866536,-0.299050305,NaEu2Sn
mp-720718,-1.97786007,CaMgB6(HO)22
mp-29509,-1.71152993,Zn(AsO2)2
mp-540755,-0.529243322,Zr2Nb3Ge4
mp-867359,-0.757516028,AlTlSe2
mp-864647,-1.376879359,Hf2N
mp-1019358,-1.773898016,ThAsS
mp-26795,-1.875304004,LiCu5P3O13
mp-973910,-0.153020273,PaAlCu2
mp-568385,-0.737810729,SrLiGaN2
mp-753719,-3.21247112,SrLiNb2O6F
mp-5190,-0.193177806,ZnSnAs2
mp-556228,-3.050702001,Na5Ca4P4O16F
mp-697653,-1.680303627,MgH8(NF2)2
mp-975106,-1.567723864,Rb2Bi2O5
mp-8203,-1.105837568,Zr(PS3)2
mp-561222,-0.985884956,K2HgBr2(NO6)2
mp-21104,-0.379508196,Hf5Sn3
mp-567842,-0.152238287,TaBe12
mp-1002109,0.003036745,VCo
mp-1677,-0.319767064,Be2Mo
mp-6661,-3.40629513,BaTi(SiO3)3
mp-556999,-2.840260973,ErSeO3F
mp-978975,-0.360807955,TbYTl2
mp-10870,-0.714851328,Zr5ZnSb3
mp-21510,-0.488964991,K2NaInAs2
mp-637224,-3.456296928,Pu2O3
mp-651726,-2.22952574,Ni3P4PbO14
mp-580226,-0.077511157,CuSe
mp-15109,-0.599712463,Sm(ZnP)3
mp-683936,-1.182194188,Ba4LaGe3SbSe13
mp-5342,-0.844070866,GaAgS2
mp-7392,-0.35637786,Na2AgSb
mp-510292,-1.438003264,CuPH6NO5
mp-7765,-3.255211014,Ba3SiO5
mp-2180,-0.414554225,HfSb2
mp-7049,-1.32264837,ZrTlCuS3
mp-21463,-0.614259534,PrTiGe
mp-30050,-0.472348244,Ba(GeRu)2
mp-21356,-2.09577644,EuCuSeF
mp-669317,-1.258841381,Cs3CdI5
mp-22007,-1.042177058,CsIn5S8
mp-635,-0.616034704,ScRh3
mp-6685,-0.973056484,Cr4FeCuS8
mp-675672,-3.82990271,Zr5Sc2O13
mp-771385,-2.36412029,Na3MnPCO7
mp-21187,-0.464258457,CaIn
mp-555293,-1.450649463,NbS2
mp-18296,-3.267586382,Ba5Dy8Zn4O21
mp-850905,-2.058397961,Li4Cr3(FeO4)3
mp-777894,-3.04661742,LiVF3
mp-3566,-0.887367824,Ce(SiRu)2
mp-770478,-1.784383419,Na6Cu2As(CO4)4
mp-557711,-2.899640797,K3Nb3(BO6)2
mp-778230,-2.112445125,Li4V3Cr3(CuO8)2
mp-780114,-2.672319627,LiVSiO5
mp-35695,-0.540943415,Li2HN
mp-754237,-3.367225722,LiTmO2
mp-972898,-0.693597155,Sc2GaAu
mp-972777,-0.502571821,Si2OsRu
mp-757458,-1.383903507,Tl8Os8O27
mp-1001034,-0.706639163,Mg(InSe2)2
mp-763275,-1.690270175,Li4Co3Cu2Sb3O16
mp-1008558,1.528753579,AuN
mp-569308,-0.181962882,Bi2(PSe3)3
mp-776356,-1.062010921,Li2SbS2
mp-733468,-2.431683591,K2PHO4
mp-19728,-1.059118311,YSiRh
mp-524,-0.463168905,Ba3As14
mp-10955,-0.266498911,Sn(HgSe2)2
mp-754671,-3.281717633,YScO2
mp-961682,-0.585970854,TiSnPd
mp-763481,-2.678664122,Nb2CoO6
mp-776823,-2.873177713,La2Nb2N2O5
mp-12231,-1.671582637,SnTe3O8
mp-505569,-0.606714406,CeH2
mp-23055,-1.439421511,RbCuCl3
mp-862705,-0.586602566,AlZnIr2
mp-865494,-0.250921248,V2CrRu
mp-4661,-4.147337732,ScOF
mp-569386,-1.059052196,P3NCl12
mp-504746,0.046766317,Cu5As2
mp-15227,-1.242274512,NdPd3S4
mp-16025,-2.791685158,Y2(SO4)3
mp-773519,-2.627716796,Li4Mn3Fe(PO4)4
mp-30873,-0.490087224,Th5Sn3
mp-973966,-1.167365667,LiIn(IO3)4
mp-764355,-2.570524352,LiFeSiO4
mp-865131,-0.792805186,Hf2OsRh
mp-780873,-1.966096816,Li2Cr3CuO8
mp-17872,-1.558878134,Ba(YTe2)2
mp-675784,-0.936316983,H(CO)2
mp-975914,-0.250967124,PrMgTl2
mp-756170,-3.469160184,Sr3LiTa4(O6F)2
mp-1019093,-1.035914121,PaP2
mp-779463,-3.176355965,Dy2P4O13
mp-772221,-1.609737108,Ba5La3I19
mp-774742,-3.140362331,Li3Sc2(PO4)3
mp-17854,-2.192233352,LiInGeO4
mp-774232,-1.896725359,Li4Cr3Ni3(SbO8)2
mp-1017579,-0.165905675,In2Au3
mp-17964,-0.60362696,Na2Ge2Se5
mp-22177,-0.738850226,DyInAu
mp-8059,-3.284382314,SiO2
mp-34492,-2.459996271,Na2TbO3
mp-29166,-0.175057983,Li3Ag2Ge3
mp-775322,-2.37213746,Li5Fe8(BO3)8
mp-23108,-2.191803131,Cs2NaUCl6
mp-978886,0.770830832,SnB
mp-18756,-3.112529618,BaTm2NiO5
mp-778012,-1.973333249,Li3Fe2SbO6
mp-560519,-3.735483956,Ba3ScCO3F7
mp-5811,-2.800371665,CsPbF3
mp-7158,-0.357762628,Lu(AlGe)2
mp-779000,-1.665045124,Rb4SbO4
mp-3333,-0.575547034,Eu(NiGe)2
mp-504422,-1.260979816,H7NO6
mp-779456,-3.238565175,Y2ReO5
mp-34910,-2.425303281,Nd2Sn2O7
mp-9374,-0.529487542,MnMoN2
mp-867143,-0.562546792,SmGa3
mp-762820,-2.804491787,LiV2(SiO4)2
mp-961693,-0.464261641,ZrInAu
mp-736390,-1.846096213,SrH3C3O7
mp-642795,-1.668079813,PHSF2
mp-975195,0.407476357,RbAc3
mp-2214,-0.047224006,TmMg2
mp-767773,-2.099908835,Li4V3Fe3(TeO8)2
mp-30405,-0.527451496,Li2SnAu
mp-28711,-1.023294192,Sb2S2O
mp-19924,-1.514083967,USeS
mp-765804,-3.089017013,Li6VF8
mp-542567,-1.853452392,Rb2Cd3H6S3O16
mp-695409,-3.289885394,Ba7Na3Ti7Nb3O30
mp-1210,-0.18121612,ThCd2
mp-542829,-0.749029772,Ho5Si4
mp-753939,-2.427543073,LiSnPO4
mp-21587,-0.357653885,Mg6Ni16As7
mp-7477,-3.077774258,RbErO2
mp-554151,-3.28357234,SiO2
mp-22300,-0.157924271,FeCo2Ge
mp-1020029,-1.452497138,Li8PO3
mp-867690,-2.371798479,Li2CuF5
mp-1006226,0.113662176,ZnBi
mp-14367,-2.089870759,AsPO5
mp-30707,-0.150007808,Zn36Ga5Ni8
mp-559291,-2.068377951,Sn2PCO6
mp-20338,-0.603113353,CeAl3Ni2
mp-762649,-2.01348363,Na3LiMn5O9
mp-770239,-3.464020964,Ba2Ta2O7
mp-22956,-1.712942783,K2PdCl4
mp-2689,-0.059070793,ThFe5
mp-10004,-0.338188471,Mo3P
mp-770688,-2.079063985,Li4CrO5
mp-22700,-0.732015656,V3Se4
mp-3953,-2.70718331,CaCO3
mp-27727,-1.042356218,CCl2O
mp-9986,-1.072886397,CsAuO
mp-1603,-0.500120872,TmGa3
mp-28651,-1.609327099,Cs2IrCl6
mp-771160,-0.203101785,Rb2MgH4
mp-767946,-2.570235218,Mn2V3Sb(PO4)6
mp-19179,-3.22743998,Ba2V(SiO4)2
mp-1018732,-1.127007963,HoTe2
mp-28394,-0.322910015,Tl2PSe3
mp-759117,-2.518972156,Li2SbP3O10
mp-18458,-0.856289609,Sr5(SnP3)2
mp-19751,-3.173549992,Ba2YbNbO6
mp-768227,-3.520652189,DyNbO4
mp-571457,-0.279525294,Ti4NiBi2
mp-776387,-2.128100286,Ti2N2O
mp-568967,-0.490300901,Ba5Ga5Sn
mp-733509,-2.707057372,Na2TiSi4H4O13
mp-972541,-0.334851443,SmTmTl2
mp-2074,-0.633542555,Li3Sb
mp-4763,-0.311400231,ZnSiP2
mp-972722,-0.531445139,SmAs3
mp-705355,-2.592949885,Li2Mn(PO3)5
mp-697144,-0.483113144,RbH2N
mp-1726,-0.659610792,KO3
mp-764299,-2.669658454,Li2VFe(P2O7)2
mp-556582,-0.83908462,Cu(IO3)2
mp-867279,-0.408941173,DyPaRu2
mp-866810,-1.704476182,Ca2SnS4
mp-771975,-2.455305126,Na2TbO3
mp-774352,-2.374028843,Li3Co2(PO4)3
mp-626724,-2.996136172,LaHO2
mp-7198,-0.960790004,SrPSe3
mp-862363,-1.091647498,Sc2PdPt
mp-556169,-2.81703198,YSeO3F
mp-555952,-2.136282686,Sb4RuC6(O3F11)2
mp-23034,-2.198399107,SrZnCl4
mp-553875,-1.920134296,Zr2SN2
mp-1752,-0.512901602,HoSi2
mp-776657,-2.822746505,Li2Fe3F8
mp-777469,-2.452589702,VO2
mp-771126,-3.914326204,Lu2TiO5
mp-31050,-0.45225819,Cl2O7
mp-19174,-2.142798529,BaMnV2(AgO4)2
mp-29484,-0.442076272,K4HgAs2
mp-12772,-0.263791182,Hf2Al
mp-505627,-0.368349092,Nb3Co2Si
mp-779079,-2.822142184,Ti3V2P6WO24
mp-558573,-3.943196319,Y2O3
mp-567889,-0.410328631,TiGe2
mp-581536,-0.347233689,U4Al18Ni5
mp-1070,-0.626330412,CdSe
mp-30337,-0.159813264,Al5W
mp-756229,-1.950919669,Na(SnO2)2
mp-18847,-2.1401942,V2CdO4
mp-20973,-2.419244257,Ce2S3
mp-12895,-0.500995656,YbGa4Ni
mp-1597,-3.780834624,UO2
mp-625274,-1.048779172,H5IO6
mp-27234,-0.838850343,Cu(IO3)2
mp-30389,-0.672970402,HoPbAu
mp-861871,0.065424839,SeI2
mp-23360,-1.073656171,Zn(IO3)2
mp-20855,-0.320027334,Eu(Sb3Ru)4
mp-861878,-0.083658774,Cd2AgRh
mp-755985,-2.80348434,Eu3ReO8
mp-20663,-0.356938528,TmCuPb
mp-558808,-3.223747965,LiAl(SiO3)2
mp-6509,-3.13341977,Sr3GaO4F
mp-768342,-3.004987959,SrNb2O4
mp-777810,-0.64119386,Ge11N11O5
mp-28611,-3.670664916,ThTa2O7
mp-11165,-2.938219316,Na2MgPO4F
mp-721053,-1.455477715,Hg3H4S2O11
mp-754625,-2.751598549,SrTaNO2
mp-570271,-0.285938966,Ti4FeBi2
mp-2839,-0.157415812,CeC2
mp-982930,0.255512037,HfTl3
mp-756867,-2.055210637,LiCuBO3
mp-23100,-2.91216981,Sr2LuBiO6
mp-18863,-2.747249883,PrCrO4
mp-623261,-0.262288663,PrGaCo
mp-979289,-0.089804245,TaW3
mp-862256,-0.115399095,Cu2PdAu
mp-541977,-0.260161747,Cs2NaFe(CN)6
mp-1020161,-2.872653204,Na3Al2(PO4)3
mp-4603,-0.149312515,Nd3Co13B2
mp-755654,-1.845479644,NaSb3O8
mp-571253,-0.519088449,Er(Al3Ni)3
mp-768500,-1.909352942,Sb2(SO4)3
mp-942702,-2.423608091,LiMnSO4F
mp-696152,-1.133110204,CuSnH12(NO3)2
mp-19961,-0.245364945,CeIn5Co
mp-31407,-0.641387201,Ba5In4Bi5
mp-20893,-0.537298573,GeO2
mp-41109,-3.345083777,Ca3Er3Ge2BO13
mp-770495,-2.353248771,Li4Ti2Mn3Fe3O16
mp-1240,-2.306042715,HoS
mp-765723,-1.813100276,Na3Li6Mn5O9
mp-21432,-0.444500467,LaPb3
mp-11557,-0.34497027,ScRe2
mp-9158,-1.459647382,LiCuO2
mp-989546,-0.566991696,SrTcN3
mp-638084,-0.706342959,DyNiGe2
mp-676828,-0.019740062,ZnCuAs
mp-672388,-0.242849893,ThPb
mp-18925,-1.961251399,Li6CoO4
mp-706447,-1.450401157,La2Mg3H48(NO5)12
mp-976032,-0.311723125,PrHoZn2
mp-23221,-1.914331335,PrBr3
mp-772711,-2.383203175,Na3SiBiBO7
mp-559969,-3.245123143,CaLaGaO4
mp-6524,-2.524864802,CaMg3(CO3)4
mp-24262,-2.239601953,KP(HO2)2
mp-28998,-0.280104428,Sn5(BIr3)2
mp-6246,-3.255663622,Ca2CO3F2
mp-31076,-0.630946218,Tl2TeBr6
mp-684011,-1.25336707,Eu8C4I9N7
mp-580329,-0.195712226,Pu3Sn
mp-27419,-2.505377784,LiBiF6
mp-558740,-1.822750886,Dy3CuGeS7
mp-39003,-3.404122603,Mg3Al14O24
mp-11513,-0.28104808,NbNi3
mp-676556,-3.750588056,Sm2Zr8O19
mp-771826,-1.63605411,BaTl2O4
mp-654374,-2.214227549,Ba2YTlCu2O7
mp-755323,-3.520149682,DyClO
mp-1018821,-0.337608761,NdTlZn
mp-557044,-0.955096246,Yb(ClO4)3
mp-676975,-3.018642385,Ba3Na7Ti3Nb7O30
mp-24356,-1.079286151,CdH4NCl3
mp-17367,-0.401722793,Mn2SiSe4
mp-555977,-1.544193424,Rb2ZnO2
mp-862730,-0.53160429,LiGaRh2
mp-10919,-0.046167758,Rb2PtC2
mp-979355,0.025498483,Sm3Dy
mp-759223,-1.958184883,Sn(SO4)2
mp-15826,-0.759633798,Lu2Co3Si5
mp-568170,-2.686769489,TbCl3
mp-20905,-0.806174923,OsS2
mp-554183,-1.393949763,ZrHg3(SCl3)2
mp-978090,-0.658191767,PrGeRu
mp-978568,-0.630696983,Si3MoPt2
mp-764459,-2.395403547,Li3Fe4(BO3)4
mp-582826,-0.191365973,GdRuC2
mp-980062,-0.328008334,YbErZn2
mp-977229,0.395386663,Li3Cr
mp-20522,-0.337705902,TmAgPb
mp-28346,-1.938532876,SrSe2O5
mp-864944,-0.482705063,MnBe2Pt
mp-15802,-1.691895902,Tm2MgSe4
mp-557181,-1.447350727,K3Na3(NO4)2
mp-18378,-0.940043307,K3AlTe3
mp-974713,-0.491139179,K2H4Pt
mp-504532,-1.877970797,As2W2O11
mp-778513,-2.864509495,LiFeF4
mp-3635,-2.754123597,LiBO2
mp-755770,-1.6364368,Ba2LaI7
mp-556748,-3.570305614,CaCrF5
mp-1016106,-0.059807182,HfZn16
mp-25401,-2.722257942,Li2TiPO4F
mp-779890,-2.469388642,Li2MnFe(BO3)2
mp-90,0,Cr
mp-560368,-2.115204822,Na6Cu9(PO4)8
mp-865607,-0.86616251,LuGaPd2
mp-531459,-3.342129226,MgAl2O4
mp-694957,-1.725335636,KMn4O8
mp-703528,-2.232061897,RbP(HO2)2
mp-768208,-1.10663496,Li3SbS4
mp-13679,-1.592640818,PdF3
mp-582081,-2.504005625,Cs3NdCl6
mp-12940,-0.397278072,HoIn5Rh
mp-675283,-2.834158236,TlPF6
mp-684709,0.133065852,K3B17
mp-1002227,0.34080068,RbSb
mp-136,0.094603065,Fe
mp-570621,-0.201982103,V2Ga8Cu3
mp-9028,-1.501043345,PrBN2
mp-972328,-0.777595436,Ti2IrRh
mp-31420,-0.469638312,CeAgSn
mp-4065,-1.080740746,Dy(SiIr)2
mp-865615,-0.491315326,GaSiRu2
mp-557432,-1.898971884,GeClO2F5
mp-616501,-1.180374808,InCu6ClO8
mp-16741,-0.781118697,TmSnAu
mp-13614,-3.158724661,Rb2Be3Cd2F12
mp-979980,-0.252204795,VPd3
mp-634059,-0.433450297,H4CSN2
mp-15016,-3.107780622,Nd4Si2Se3O7
mp-19483,-2.557678062,TmFeGe2O7
mp-765036,-2.754042445,Li2MnOF3
mp-19977,-0.440438078,SmIn3
mp-567681,-1.323422207,CsPbBr3
mp-768797,-2.406901224,Li3Bi(BO3)2
mp-9463,-0.594615502,ZrGeSb
mp-6091,-3.474241925,BaAl2(SiO4)2
mp-22828,-2.659028229,Eu2Ge2O7
mp-641917,-2.652940135,ZnSiO3
mp-619546,-1.264386124,Cs2HgBr4
mp-560354,-1.975919574,SbCl(OF3)2
mp-759774,-3.140601365,Na6Ti11O24
mp-504814,-0.739570418,Sb2Pb2S5
mp-704604,-2.538988354,Zr(MoO4)2
mp-4054,-0.599090061,YAl3Ni
mp-554812,-2.052263438,CuB2(PbO3)2
mp-1610,-2.343679857,TbS
mp-8878,-3.108772307,Sr(BO2)2
mp-40356,-2.697958328,BaLaMnMoO6
mp-18933,-2.354172434,Li2WO4
mp-540876,-3.386239553,KTh2(PO4)3
mp-19472,-2.400831761,Rb2MnV2O7
mp-17639,-0.23504222,Y2Zn17
mp-864940,-0.706967233,Mg2PtRh
mp-972664,0.071271159,SmTh
mp-640095,-0.104011484,La3Co
mp-6632,-3.398581794,Ca5B3O9F
mp-35539,-0.507663711,Zn2GeSe4
mp-771431,-2.002841649,Cr3Sn3(SbO8)2
mp-30347,-0.309162225,ScInAg2
mp-9490,-0.713312291,KAg2SbS4
mp-21739,-0.587131305,ScCoGe2
mp-652399,-0.186476334,Li(FeGe)6
mp-3640,-0.591616056,Nb6Si7Ni16
mp-554343,-1.034005263,K2CuSbS3
mp-19936,-0.319499306,Sc(MnGe)6
mp-2497,-0.354148728,GdZn
mp-4599,-2.314655616,Ce(TeO3)2
mp-863961,-2.11308112,SrNi2P2(H2O5)2
mp-18,0.008271785,Tb
mp-973320,-0.003142178,MgIn3
mp-675781,-0.939560183,Cu3(Mo3S4)4
mp-554108,-2.636109385,LiRe(OF2)2
mp-8275,-1.865416263,CdGeO3
mp-1771,-0.828680107,NO2
mp-542818,-1.769397486,BaVS3
mp-721303,-1.843337476,LiBeH5(NF2)2
mp-31467,-0.59022784,Ga3Pd7
mp-18670,-0.876374857,Ca5(SnAs3)2
mp-675496,-0.617104376,Fe2SnS4
mp-559303,-0.831733135,MoS3(NCl4)2
mp-5434,-0.111805714,Y2Fe14B
mp-973970,-0.023457516,Li(Mg4Al3)4
mp-17363,-3.7190899,BaHo2O4
mp-769469,-2.178841452,NaMnPCO7
mp-22707,-0.729300161,EuAgSb
mp-20652,-2.467571867,PbF3
mp-8232,-4.151254442,BaZrF6
mp-866117,-0.436072884,HfZnAu2
mp-181,-0.166578326,KGa3
mp-7583,-1.069290394,SiS2
mp-768361,-0.950702207,Li2Fe2S3
mp-30977,-0.214028828,B5H6Br
mp-9268,-0.942894047,KSe
mp-758134,-2.241762453,Li2AgF5