id,formation_energy_per_atom,pretty_formula
mp-675464,-1.791978689,CdIn2O4
mp-9405,-2.068237897,K3SeO4F
mp-23648,-3.138538703,Li4Al3Si3ClO12
mp-631467,0.712271937,BeInSi2
mp-754095,-2.153454622,Li3Cu4F9
mp-770847,-2.702194179,La2Cd2O5
mp-22958,-1.065205625,KBrO3
mp-997011,-0.263399279,CuBrO2
mp-757205,-4.235206796,Y2Th5O13
mp-23002,-2.374077387,TiBrO
mp-755891,-1.811145562,CsLiH4SO5
mp-570972,-1.733281744,K2Mn(NbCl3)6
mp-12729,-2.894959257,Ba2TmRuO6
mp-977583,-0.12905924,LiNpIr2
mp-704227,-2.44824117,Mn9(PO4)8
mp-541474,-1.167673433,Pt(OF3)2
mp-5127,-1.44179702,LiCuO
mp-542622,-2.149118955,P4O7
mp-764063,-2.24851808,Li2CoO2F
mp-11977,-0.432091537,LiSnAu
mp-23609,-2.580685089,Zn3B7ClO13
mp-772583,-2.780120083,Ca3W2O9
mp-567846,-0.602249249,Ta3P
mp-730,-0.688941781,P2Pt
mp-777233,-4.303403177,BaYF5
mp-7938,-1.495804887,KNbS2
mp-11544,-0.561750306,Yb2Pb
mp-540138,-2.41778716,MoPO5
mp-762239,-1.702947186,Mn(CO3)2
mp-756317,-2.561971129,Al2HgO4
mp-505292,-0.601620489,Nd3(CuGe)4
mp-569603,-0.763458767,BaCa4(CuN2)2
mp-753677,-1.230332011,Li3BiS3
mp-23546,-1.04437706,Na2UI6
mp-974682,-0.278997847,RbGaH2
mp-19979,-0.693215759,La(NiGe)2
mp-558411,-3.871436248,Y2Zr2O7
mp-865259,-0.335445195,HoHg3
mp-631895,0.860128565,FePbW2
mp-19170,-2.313992568,PrNiO3
mp-779738,-2.547673835,Hf2N2O
mp-1023,-0.100691786,Ho2Co17
mp-557962,-1.591057367,SrLiBS3
mp-1086,-0.578120219,TaC
mp-2432,-0.114764957,CaMg2
mp-776110,-2.606444487,SiSnO3
mp-23827,-0.977324606,Sr7(H6Cl)2
mp-554191,-3.040508701,Na2UO4
mp-777443,-2.667710952,Li2FeF6
mp-764506,-2.339741881,Li3Fe8(BO3)8
mp-865000,-0.974457324,HfScIr2
mp-556553,-3.194381445,SiO2
mp-673673,-2.00919958,NdO3
mp-22893,-0.67444125,PbI2
mp-644418,-2.043570055,CaH2CClO3
mp-557143,-1.498043032,Tl2Cu(CO3)2
mp-631562,0.908164149,SiBAu
mp-769001,-2.486996947,Li6Sn2B4SO16
mp-27768,-0.443941919,Co(BW)3
mp-694629,-2.515146322,V3(PO4)4
mp-971950,0.143014313,Zn3Sn
mp-314,-0.697974213,Th3Ge2
mp-557826,-3.247677952,Li3U7(PO7)5
mp-755796,-1.006661647,Li2FeS2
mp-39542,-3.37134981,KRb2ZrOF5
mp-616577,-1.519124104,Sr3BCNCl2
mp-759657,-2.560835533,Li3CuF6
mp-28675,-3.008394472,Ba2Nb15O32
mp-1013554,-0.856812955,Sr3PN
mp-779820,-2.637105534,Li3Fe4(Si3O10)2
mp-557111,-2.501461952,Sr3CaRu2O9
mp-865804,-0.544547881,TaZnRh2
mp-1091,-0.421734333,SmAu6
mp-768185,-3.412118598,Ba4Li4Ti19O44
mp-540544,-1.808779556,U8CrS17
mp-18303,-1.311907975,Nd3CuSnSe7
mp-676666,-2.711924499,Rb2CeO3
mp-631481,1.583072864,NaSrNb2
mp-644280,-0.47961657,GaCuPt2
mp-9132,-1.420263908,Ta3SnS6
mp-505164,-0.394862872,NbTe4Ir
mp-1001113,0.49244523,Si
mp-13339,-1.96476963,EuCuTeF
mp-8793,-0.389332694,Nd5(FeB3)2
mp-780192,-2.056354879,Li5FeO4
mp-22739,-1.31060148,BaFe2S3
mp-626885,-2.592844793,U(HO2)2
mp-18953,-2.715959234,NaV(OF)2
mp-769590,-2.434061937,Li2V3CrO8
mp-1002104,-1.191140391,LaPt
mp-4316,-0.670573264,Sr(NiAs)2
mp-752546,-3.284400927,LiTi4O8
mp-780862,-2.62898602,Mn2OF3
mp-17395,-2.830178736,TmCu(BO2)5
mp-579628,-0.305282683,Gd2Tl
mp-2083,-0.2864418,Sn2Ir
mp-5014,-0.330003264,CuAgS
mp-556382,-3.4752861,EuClF
mp-850231,-2.268698676,Li2TiFe3O8
mp-27377,-3.286661711,K4Zr5O12
mp-21238,-0.699740106,ThSi
mp-18509,-3.333839858,KBe3ZnF9
mp-541325,-2.515495529,Sr2HoGaCu2O7
mp-862927,-0.458510294,LiPmHg2
mp-27452,-1.657241031,Al2PdCl8
mp-9954,-1.006465923,HfAs
mp-759441,-2.290503744,LiCu(PO3)2
mp-721236,-1.272253983,Li10Sn(PS6)2
mp-1019266,-1.230908954,SmTe2
mp-780172,-3.070755239,Tm2TeO6
mp-773016,-3.150915412,Lu2P4O13
mp-7440,-0.373414702,NaP
mp-626073,-2.062341448,Al(HO)3
mp-975664,-0.380872753,NdGe3
mp-756593,-3.395001923,Ta3(OF)5
mp-9841,-2.795962182,Er2(SO4)3
mp-30369,-0.577852345,Ca7Au3
mp-24402,-3.121909755,CaAlSiHO5
mp-865315,-0.220910391,Lu2MgOs
mp-783907,-2.47621944,LiMnP2HO7
mp-3006,-0.737249537,P2Pd3S8
mp-867201,-0.383062757,CaInHg2
mp-1339,-0.584144505,NbIr3
mp-829,-0.87842974,AlPd
mp-850757,-2.521132707,Fe3OF5
mp-22708,-0.722151983,Th3Co3Sb4
mp-542428,-1.007403523,Ba11Sb10
mp-1006246,0.082037113,CeSm3
mp-12892,-0.300980568,CaSi2
mp-999393,0.505773715,NbCr3
mp-39626,-2.861164314,SrLaMnWO6
mp-30221,-1.261594074,Ba5P5I3
mp-979751,-0.282129877,TaTiFe2
mp-35249,-4.020394172,Sm2Hf2O7
mp-542840,-2.422647322,In2Si2Pb2O9
mp-780894,-1.979918207,Na6Ni2P(CO4)4
mp-554714,-3.452625574,Np2O5
mp-760092,-2.151924297,SbOF
mp-775200,-2.167850315,MnNi(PO4)2
mp-18963,-1.409522389,Ba2Mn3(AsO)2
mp-29048,-2.132824751,Sr(BiO2)2
mp-28091,-1.732496026,In2(TeO3)3
mp-541332,-2.497196665,Sr2LaGaCu2O7
mp-18776,-2.761353329,CaCoP2O7
mp-984766,-0.449070345,Ca(BH4)2
mp-17166,-2.792526971,K2B4O7
mp-578882,-0.668854819,SbPb2S2I3
mp-21336,-0.843525564,TaFeP
mp-1018179,-0.30800636,AlAu2
mp-20588,-0.717059258,ZrCuSiP
mp-982387,-0.380436763,Pm2ZnHg
mp-27802,-1.343249225,BaSn2S3
mp-569935,-1.508855397,La3(BN2)2
mp-17676,-2.540217879,Sr2SnS3F2
mp-1018107,-0.88138932,ZrTe2
mp-510408,-1.780175614,MnO2
mp-5419,-0.494046623,LiGa2Ir
mp-29030,-3.163453878,ThTl3F7
mp-703316,-0.443836736,LaMg2H7
mp-20612,-0.275120862,NaMnAs
mp-559730,-1.664791699,KGa(Te3O7)2
mp-528,-0.005003761,U2Zn17
mp-662513,-1.037511149,Te2WCl6
mp-699543,-1.82803284,Na2Co5Mo4(ClO4)4
mp-13549,-0.574512242,CeZnAu
mp-762600,-1.838061466,Li6Fe7O15
mp-18721,-2.60517422,Mn2P2O7
mp-767709,-2.751400266,Li2Mn3Si3O10
mp-7589,-2.00561052,Mg2NF
mp-733729,-2.332465735,RbInPHO5
mp-5402,-1.748451339,CaTl2O4
mp-7104,-3.740798124,CsCaF3
mp-10129,-0.512783212,TmNi4B
mp-9086,-2.154231311,CsDyS2
mp-865219,-0.602795728,Dy2IrRu
mp-4851,-2.657842699,Sr(GaO2)2
mp-763229,-2.802727065,VOF
mp-556031,-2.378724329,Sn2P2O7
mp-193,-0.135833437,Zr2Cu
mp-20898,-0.367273617,DyInAg2
mp-6092,-0.51119636,TbNi2B2C
mp-27739,-1.805150927,As2S2O9
mp-754444,-0.70779332,Zn(AgO2)2
mp-3299,-0.828984611,Sr(FeP)2
mp-20958,-2.982397865,Ba2LaReO6
mp-707485,-1.69402007,K4Cu3As4(HO8)2
mp-570538,-0.380099615,NaN3
mp-975176,-0.202119788,Rb2HgAu
mp-769540,-2.259577023,Na3Mn2P2(CO7)2
mp-865651,-0.379346504,Y2TlCd
mp-6245,-2.888961092,K5Nb4O12F
mp-2868,-0.29879645,Th11(Ru2C3)6
mp-1008865,-0.346888986,NdCd2
mp-643573,-0.335635519,Mg3MnH7
mp-760370,-2.342109465,Bi6O5F8
mp-1009732,0.893803479,RhN
mp-776406,-1.990084548,TePO5
mp-1453,-1.837305653,NdSe
mp-1020616,-2.924064391,RbMgPO4
mp-625154,-1.22186058,H8PtO6
mp-973165,0.39496434,Lu3U
mp-779360,-2.812182793,VOF
mp-776280,-2.148722671,Ti2N2O
mp-22585,-0.469466739,GeRh2
mp-775935,-3.750626981,ZrO2
mp-998432,-2.390932386,CaTcO3
mp-19413,-2.638740153,AlWO4
mp-38818,-0.862740534,HfNbB4
mp-568634,-0.447266094,Yb3(Ga2Ge3)2
mp-676290,-0.756583914,RbHS
mp-982321,0.763907822,Yb3W
mp-776692,-2.857388528,LiFe2F7
mp-28198,-0.886860291,RbInI4
mp-22792,-0.210990853,MnTePd
mp-556592,-0.740220952,TlBi(PS3)2
mp-6674,-3.081048235,LiLa2SbO6
mp-31515,-2.500649242,Sr2CoReO6
mp-10470,-0.865163844,NbSiRh
mp-29789,-1.107300037,Lu(ClO4)3
mp-505499,-0.417878841,Ta4BTe8
mp-505357,-0.540493642,InSeI
mp-510274,-0.882330355,Zr2Si4Ru3
mp-972424,-1.178441683,TbYbPt2
mp-769049,-2.813986776,BaLaCl5
mp-14765,-0.636497856,Ba(Ni5P3)2
mp-541738,-0.910811977,Cs3Cr2I9
mp-9716,-3.019208355,TiBO3
mp-764415,-2.318557951,MnFeCo(PO4)3
mp-768041,-2.599471384,Li4MnCr3(PO4)4
mp-18474,-0.154307636,Ag8GeSe6
mp-554649,,Na3NiF6
mp-1853,-0.467960749,Sr3P14
mp-971775,0.119695214,ZnPb3
mp-774306,-2.44495964,LiCrPO5
mp-707105,-2.603116215,Li3B5(HO5)2
mp-780874,-1.923554542,KLi2Mn2O4
mp-755856,-2.619072276,Mg2SnO4
mp-761090,-1.689005537,Na3BiO3
mp-989568,-2.98289015,Cs2NaMgF6
mp-558977,-2.55212611,LaErS3
mp-1020707,-2.66900991,Rb2GeB4O9
mp-555565,-0.824289466,Ag5(PbO3)2
mp-998427,-1.639428831,BaZrSe3
mp-696485,-2.223513967,Na2TeHSO5F3
mp-12961,-0.876217386,YAlPd
mp-767604,-2.893506832,Li12Nb14ZnO42
mp-4138,-2.088113754,Rb2CO3
mp-772787,-3.162611114,Gd2P4O13
mp-949,-0.088027585,CoPt
mp-23496,-0.712263601,CsAg2I3
mp-23207,-0.56689016,ClO2
mp-626295,-1.459358962,Ba(H8O5)2
mp-770506,-2.543286409,V5BO9
mp-606691,-3.107681356,KU2P3O14
mp-555700,-3.280698975,SiO2
mp-30412,-0.069018344,Pb3Au
mp-766249,-1.503557905,Bi24Br10O31
mp-11605,-1.998128773,KTb2CuS4
mp-12464,-0.279142417,Co(PdSe)2
mp-3879,-3.404017054,Ba2CuF6
mp-501,-0.807499227,TaSe2
mp-865355,-0.385235111,Zn3Pt
mp-865779,-0.30146302,Ga2CoRu
mp-540611,-2.936203601,RbNd(PO3)4
mp-540760,-1.185992824,FePCl8
mp-571107,-0.570222179,Er4InRh
mp-974789,0.042564933,Rb3Sn
mp-27018,-2.374944647,SnPO4
mp-3378,-3.833919076,SrHfO3
mp-562764,-1.848150873,Ba7B4S13
mp-1006880,0.824370604,BiB
mp-570070,-0.860481977,Yb4Ge6Rh7
mp-9636,-2.945332014,CsSbF6
mp-744801,-1.609487872,RbVH24(SO10)2
mp-10045,-1.011319241,Ba5As3
mp-541240,-2.423730629,Sb3O2F5
mp-973111,0.038064222,In
mp-865604,-0.021416597,Li5Mg
mp-540482,-2.522657435,LiCrP2O7
mp-772199,-1.534109215,Rb3ClO
mp-31924,-2.585231188,LiMnP2O7
mp-709350,-2.487207971,Sr5As5HO18
mp-12011,-1.636357932,KTbGeS4
mp-560608,-2.565052966,Nd10S14O
mp-10032,-0.086624143,Ge2Os
mp-642991,-1.803992163,TbH3(CO2)3
mp-849478,-2.424786142,Mn6O5F7
mp-999177,-0.606004936,SmGa
mp-554543,-3.276364324,SiO2
mp-21433,-0.685036002,TbTiGe
mp-817,-0.156608745,TmTl3
mp-779363,-2.882513731,Cr4OF11
mp-23091,-2.471007048,Ba2BiSbO6
mp-756272,-3.924349722,LaDyO3
mp-18352,-2.16647141,HfTe3O8
mp-723426,-1.96672631,NaLiP2(H4O5)2
mp-1518,-0.65110255,CeRh3
mp-3467,-0.442239714,SmB2Ru3
mp-555965,-2.151016519,Li2ZnSn3O8
mp-571621,-0.869731753,Ba3Na2(CN2)4
mp-22913,-0.25404135,CuBr
mp-779904,-0.85495964,Ni(IO3)2
mp-676077,-3.843824923,Ce3Nd2O9
mp-505759,-0.677225113,Zr5Sb3
mp-531132,-3.343850671,Ca3(PO4)2
mp-1019522,-3.009281927,Ba2B10O17
mp-653005,-1.954384641,Ca2(Fe2O3)11
mp-753490,-0.341573227,TiCuGe
mp-754628,-0.463359974,WN2
mp-11957,-0.573312919,CaSn2Ir
mp-571580,-0.477245765,Er14(InPd)3
mp-1007854,0.019723665,FeNi3
mp-607806,-1.912767761,Ho3Se3N
mp-554873,-2.529754354,Ag2B8O13
mp-17885,-0.852741396,Ba2Ge2Te5
mp-546790,-2.084155719,LaCuTeO
mp-605461,-1.771170956,K3UH6C5SNO13
mp-23009,-1.511443231,Ca2BrN
mp-570788,-0.519141718,Yb3Ni7B2
mp-9939,-0.653533695,Hf2Ge
mp-9008,-0.671781228,RbTeAu
mp-12564,-0.32206159,LiSbAu
mp-850933,-1.632774151,Fe4O7F
mp-24348,-2.43946683,BiP4HO12
mp-680539,-0.329374744,K11(In2Bi3)3
mp-11905,-2.733765532,LiNd2IrO6
mp-6595,-2.25272598,Sr3CuPtO6
mp-863659,-0.396746346,LiScHg2
mp-4938,-0.542688705,ScCo3B2
mp-28610,-1.437840786,CsAgCl3
mp-567462,-0.496133709,Sc3RhC4
mp-861913,-0.20850462,LiDy2Al
mp-721901,-2.12371628,K2B4H8O11
mp-16884,-1.111650276,RbEr2Cu3Se5
mp-560882,-1.161506955,SeO2
mp-675300,-3.799006785,Ho2Zr2O7
mp-4297,-0.449669033,U(GePd)2
mp-541743,-2.557807427,Ba3YbRu2O9
mp-973535,0.616575108,K3Sc
mp-981247,-0.196528726,Zn7Sb8Ru9
mp-16960,-0.86268887,AlPt2
mp-22896,-2.854713809,LaCl3
mp-5769,-2.230387482,Li3SbO4
mp-23651,-2.564093266,Na4Al3Ge3IO12
mp-972323,-0.415803495,TaNbTc2
mp-3633,-0.427082081,Er(Al2Fe)4
mp-770611,-1.778407174,Li2CoH8(SO6)2
mp-23522,-2.244962133,BaZnCl4
mp-30732,-0.649639537,HoTlPd
mp-30603,-0.11790246,ZrCu5
mp-867154,-0.474310159,BP4(SBr)3
mp-558111,-2.904709203,Rb2MnF6
mp-36982,-1.729269045,Mg(TiS2)8
mp-10378,-0.30495735,Cs3Sb
mp-703539,-0.358130007,AgB11H6CBr6
mp-23451,-1.281429825,Cs3Cr2Br9
mp-979266,-0.184817661,Sm3Al
mp-11670,-1.452064881,BaYSi4N7
mp-22605,-0.557668464,Cr2CdSe4
mp-10922,-0.622417755,Mg2Co12P7
mp-541878,-1.136845874,K2Ge2S5
mp-12779,-0.458508028,CdTe
mp-572456,-2.289147469,YbGeBiO5
mp-1018047,-0.809378074,LaSn
mp-1018753,-0.371956929,LaTlCd
mp-760758,-1.781096086,Bi3O4F
mp-21156,-0.293683435,TbPb3
mp-772925,-3.197637769,Li4Ti5O12
mp-24461,-0.786329825,H12OsN5Cl3O
mp-570930,-0.457909704,Bi2Pb2Se5
mp-593,-0.210122568,Al4Cu9
mp-29576,-0.076539339,Cd7P10
mp-775277,-2.229609017,K(WO3)3
mp-12759,-0.150083986,Zn2CuAu
mp-560625,-1.997652288,RePbClO4
mp-556001,-2.957610461,NaBeSi3HO8
mp-983550,0.169498794,Pa3Nb
mp-779582,-0.428587303,Rb19O3
mp-30719,-0.201028986,Mg2Hg
mp-632656,-0.715032059,HoH3
mp-16514,-0.563706636,Al3Ni5
mp-982017,-0.378884961,PrYTl2
mp-382,-1.347238519,Th3As4
mp-770894,-2.712315333,Li2CrPO4F
mp-981397,-0.083924511,YbPrMg2
mp-1008275,0.162435858,Cr3Ni
mp-542593,-0.796192531,NdGe2Ir
mp-10950,-2.902053402,Sr2Cu(PO4)2
mp-28639,-0.152075546,Tl2GeTe5
mp-4088,-0.614903754,La(FeSi)2
mp-570921,-1.895206982,CsLu(NbCl3)6
mp-1017,-1.549442351,Zr3O
mp-568565,-0.184269732,CrAs
mp-2282,-0.685026934,NiS2
mp-1,0.040792124,Cs
mp-695866,-1.592477357,BeH8(NF2)2
mp-989522,-0.489428594,Mg6Bi2PN
mp-11653,-2.747379445,BPO4
mp-5972,-1.911337052,CsPd2F5
mp-8128,-3.006664491,NaNdO2
mp-766289,-3.753486575,ZrU9O20
mp-555999,-1.277221553,Np(IO3)4
mp-28299,-2.181346488,USe2O7
mp-12900,-0.830328315,HoSi
mp-861604,-0.491161585,Ca2TlPb
mp-570885,-0.607376496,LaCoSb3
mp-769481,-3.429908622,Y4Ga2O9
mp-28246,-0.013558674,AgTe3
mp-8184,-2.240653704,Li2ZnGeO4
mp-687090,-2.60185729,Hf(MoO4)2
mp-762988,-2.96821272,LiMnF3
mp-23408,-0.698614688,Tl4Bi2S5
mp-23033,-1.668676619,Sr2NCl
mp-557735,-1.827725353,BaCuTe2O7
mp-780087,-2.603720947,LiMnSiO4
mp-631353,0.934237321,MnRePt
mp-772886,-2.823736861,BaLa2Cl8
mp-32689,-1.891678193,Pr2Se3
mp-989604,-1.112680412,YMoN3
mp-755263,-0.975972633,CrS2
mp-542158,-2.015044687,FeNiPO5
mp-1132,-1.385812637,CdO
mp-14245,-0.976482382,Dy2Si5Rh3
mp-862555,-0.242881175,LiY2Al
mp-764985,-1.770122716,Li8Fe3Co7O20
mp-510459,-1.945645202,MnVCuO4
mp-754500,-2.312223891,LiSn2P4H3O16
mp-11521,-0.505766273,ScNi
mp-774390,-1.789655436,Mn3SbO8
mp-36086,-2.665726454,Li3NbO4
mp-722245,-0.834049425,K2H2C2S2N2O
mp-673174,-0.163831829,Fe8N3
mp-552200,-2.956151736,Ba2TaBiO6
mp-4362,-0.672650299,Cu2Ag2O3
mp-568949,-0.86297025,TlBr
mp-2338,-0.387426237,TbZn2
mp-559614,-2.580262467,Sr2ZnReO6
mp-667292,-3.142195822,K2MgSi5O12
mp-766367,-3.379648691,Dy5(ReO6)2
mp-19814,-0.25955274,NiAs2
mp-560042,-1.573326857,AsS3(NF3)2
mp-773463,-2.167210136,K2CoPCO7
mp-753459,-3.076450973,Nb3O7F
mp-24170,-2.239120034,CaPH3O4
mp-976151,-0.087631847,PrErMg2
mp-4793,-0.627105175,U(SiPd)2
mp-20293,-1.095969686,SmGePt
mp-11115,-0.42522689,RbCuPdSe5
mp-675345,-0.882213097,Bi5(S2Cl)3
mp-6600,-3.244179403,K2Zr(SiO3)3
mp-775713,-2.245992146,NbNi3(PO4)4
mp-770558,-2.395511181,MnP2O7
mp-505825,-0.057362258,Cs2PtC2
mp-697676,-1.71172453,H2Pb4SO8
mp-8110,-3.137699723,AlBO3
mp-20517,-0.26000615,BPd3
mp-1253,-2.048119619,BaSe
mp-20298,-0.479889233,SmIn
mp-643066,-1.817144489,ZnH2SO5
mp-865524,-0.819185481,YCdPt2
mp-999566,0.277050198,Mn2CuSb
mp-759071,-2.479243329,LiSb(PO3)4
mp-26650,-2.472511904,LiSnP2O7
mp-1016883,-2.263885814,ZrZnO3
mp-2286,-1.26326638,Li2Se
mp-3262,-0.829205506,Tm(CoSi)2
mp-5273,-1.415424951,KPrTe2
mp-672265,-0.106118593,Cu3Pd
mp-975909,-0.349846438,LiAu3
mp-849509,-2.741237172,Li2VPO4F
mp-961708,0.147897239,NbInPt
mp-763519,-2.185742943,Li4Mn3Nb2Co3O16
mp-775180,-1.806487938,Li2Co3WO8
mp-1009460,0.04347618,Hf
mp-26875,-2.307139103,Li2CuPO4
mp-505558,-1.263438324,Dy3CuGeSe7
mp-23126,-1.652358334,KAs4IO6
mp-676951,-3.724156901,Dy3NbO7
mp-662534,-1.741495786,AgIrF7
mp-558045,-2.701442741,NaLi2PO4
mp-773330,-2.023459114,Li2Mn3SnO8
mp-6280,-3.550839263,Al2Si(O2F)2
mp-996969,-1.164402962,AgBiO2
mp-30032,-0.842755055,TlIO4
mp-760188,-3.096773701,Nb3O7F
mp-704197,-2.581190611,Li2Mo(PO4)2
mp-977435,-0.951070123,ZrAlRh2
mp-4106,-0.863559269,YbSnPd
mp-849071,-1.052215126,Cr3S4
mp-849429,-2.533222356,Li3Co2OF5
mp-978829,0.171975558,Sm3Hf
mp-556826,-3.13093657,Ca(BO2)2
mp-758379,-3.7684276,Y11Ta5O28
mp-16522,-0.617000593,Al2Pd
mp-777787,-2.805256083,HoAsO4
mp-853240,-1.720922658,LiCoO2
mp-24405,-1.932608226,LiCd4Ge5HO15
mp-4105,-0.587206161,Ho(CuSi)2
mp-850914,-3.029031367,Li4CrF6
mp-30529,-0.140118043,B5H11
mp-22887,-2.752019169,EuCl2
mp-573202,-1.24519318,K3Ta2Ag3S8
mp-975646,-1.827578196,PrZnSbO
mp-779046,-2.537249874,Li5Cu(PO4)2
mp-625560,-1.208993905,H7BrO3
mp-571617,-0.540848616,Sr2LiInGe2
mp-21581,-0.114736515,Tb(FeSn)6
mp-560670,-1.89216376,MgSeO4
mp-972205,-0.309023631,V2MoOs
mp-21884,-0.43875389,EuGa4
mp-631494,0.116105607,SrCrPd2
mp-14169,-3.491253055,Li4UF8
mp-13664,-3.52498017,Sr2Ta2O7
mp-1402,-0.363526033,SmNi2
mp-30942,-3.962575493,Ba6Mg11F34
mp-770394,-2.306429072,Na5Fe2P2(CO7)2
mp-980648,-0.480343225,TmThRu2
mp-775782,-1.940888848,Na4Sn2C4SO16
mp-628618,-2.234343442,Ba5Os3NO18
mp-30872,-0.541464318,ThSn2
mp-8804,-0.866891244,Li6MoN4
mp-862679,-0.078709283,TaZn2
mp-703231,-2.404284873,CdFe2Sb2(PO4)6
mp-17682,-0.080084759,Zr2Fe
mp-1018946,-0.534051165,PrZnGa
mp-863869,-1.963308458,Li3Mn3FeO8
mp-21294,-0.385251218,Y2In
mp-40685,-3.140187579,NaSm3Ti2(SbO7)2
mp-626435,-2.116364391,Al(HO)3
mp-773721,-2.21982455,Mn2Cu(PO4)3
mp-1009008,-1.466897099,LaTe
mp-769490,-1.958988019,Na3Ni2P2(CO7)2
mp-778268,-2.697318715,Ti3CrSb2(PO4)6
mp-9380,-2.360280054,SrGe4O9
mp-557748,-1.945100376,SbIrC2(OF3)2
mp-985296,-0.055112873,Ag3Pd
mp-975586,0.031634569,Pr3Y
mp-752671,-1.75287487,Ba2SrI6
mp-1007758,-0.072170522,HfCd
mp-696656,-2.143257766,BH4O2F3
mp-623027,-0.365489563,Pr2Ga
mp-30444,-0.050255229,Be22W
mp-557028,-3.580799718,Sr2LaTa3O11
mp-772890,-1.997599356,Np(SeO3)2
mp-20935,-0.719455016,ZrSnIr
mp-753022,-2.163924109,NaGa5O8
mp-773906,-2.70126521,KNaZrSi3H4O11
mp-27757,-0.023110046,Be4B
mp-1018680,-0.300306288,DyTlZn
mp-10614,-0.901035074,SrLiP
mp-3034,-0.18081254,MgAl2Cu
mp-769922,-2.593259279,V2SiO4
mp-14215,-0.916964491,Ba4GeP4
mp-486,-0.359562185,NiP2
mp-561124,-2.503041555,Ho3Se4O12F
mp-640108,-0.467188978,Ce2InNi2
mp-862791,-0.430716537,GaCuPt2
mp-694994,-0.535780301,CoH22N7(ClO2)4
mp-531792,-4.142789016,LuZr3F15
mp-760747,-3.369268114,Ti11O18
mp-541911,-2.194034904,HfNCl
mp-28853,-2.332686997,LaAuO3
mp-560358,-3.32081186,Zr2P2O9
mp-7086,-0.648180908,RbFeSe2
mp-11287,-0.450237012,CaHg2
mp-631464,0.732803561,KBePt
mp-680689,-3.309529694,SrTi2O5
mp-542550,-0.860634803,Cs2Si2Se5
mp-759534,-1.963122638,LiBi2(SO4)3
mp-973977,-2.156794033,HoSnO3
mp-6759,-2.999088971,BaGa2(SiO4)2
mp-667314,-0.935501912,Ba9(TaN6)2
mp-675751,-3.423075824,Zr7N2O11
mp-29696,-1.441099586,K4Sb2O3
mp-975814,0.862836805,Mo3H
mp-15182,-0.28705639,Rb2LiCo(CN)6
mp-974525,0.894227734,ReAg3
mp-4483,-0.079411037,AgAsSe2
mp-865588,-0.316453398,Y2CuRu
mp-26796,-1.791508298,Cu5P3O13
mp-7880,-0.297162611,Sr(SiAg)2
mp-768959,-1.930503817,Na4Sb2C4SO16
mp-15408,-3.070006043,KGaF4
mp-608594,-2.188251303,CrWO4
mp-867848,-0.339657674,LaMgCd2
mp-1020125,-3.245153368,MgSiO3
mp-568744,-0.468682211,Ba2Cd3Bi4
mp-1112,-0.248868883,CeCo2
mp-1019557,-2.172820365,BaS4O13
mp-23558,-0.936802627,Ag2BiO3
mp-28294,-2.68416866,Sb11F43
mp-980038,0.653686931,Tl3Ru
mp-22953,-0.532942082,YbCuBi
mp-11172,-2.232768896,LiIrF6
mp-971678,-1.70168248,Na3Ni2SbO6
mp-17495,-2.894344132,RbTiP2O7
mp-762344,-2.495994789,Na8Nb5O14
mp-770538,-2.431014692,Mn2PO5
mp-780287,-2.609292597,Li3Mn2(SiO4)2
mp-1604,-0.849312372,Pt3O4
mp-761324,-2.178310066,LiSiNiO4
mp-18803,-2.222908993,Na2WO4
mp-731,-0.113463377,Mg3Hg
mp-21710,-0.726675652,CaGeAu
mp-3827,-1.082315005,KFeS2
mp-13937,-3.015326895,Sr2TbReO6
mp-206,-0.674454088,Tb5Si3
mp-756014,-3.230872983,Ba4HfO6
mp-568509,-0.578002028,Er(CoB)2
mp-7909,-0.464607041,Al2CdTe4
mp-21401,-0.924938335,TbSnPd
mp-757479,-2.507842805,Li2Sn(PO3)6
mp-15794,-1.703303857,LiYSe2
mp-973278,0.106723116,KSr3
mp-558115,-3.280832068,SiO2
mp-560845,-0.556237369,Cu2As4S3Cl2
mp-1502,-0.894872577,Al2Pt
mp-673706,-0.734401322,Li7(Mo3Se4)4
mp-550514,-2.236490346,LaTaN2O
mp-15293,-0.698719312,TmTiGe
mp-27403,-3.757925066,LiUF5
mp-1018735,-1.707042,BaTi2As2O
mp-865364,-0.36910948,DyTaRu2
mp-13938,-3.029403251,Sr2DyReO6
mp-18710,-1.127206722,RbSm2Ag3Se5
mp-867213,-0.607706736,Er2OsPd
mp-631573,0.893882574,Re2AuSe
mp-542188,-1.050533057,Cr(MoS2)2
mp-26248,-2.474810488,Li4Cu(PO4)2
mp-759341,-2.505541567,Li4Cu(PO3)6
mp-604,-3.035558851,Nb2O5
mp-761126,-1.566660053,Cu4OF6
mp-849335,-2.667974611,Ti3N2O3
mp-1019087,-0.448487212,CaSnHg
mp-22397,-0.662085264,Nd(GeRu)2
mp-9852,-0.519391548,TmP5
mp-3507,-0.89758376,Lu(SiPd)2
mp-257,-0.450417637,DyIn
mp-27801,-0.451243085,TlAgI2
mp-703461,-1.646291006,GeH8N2OF6
mp-755210,-3.116391638,Y4Cu2O7
mp-867701,-1.28305621,Li6CuS4
mp-531296,-0.841664288,Ge(PbS2)2
mp-554508,-3.153527042,KYP2O7
mp-763535,-2.445043799,LiP5W3O19
mp-19937,-0.153967229,NpSi
mp-697677,-0.400520391,CeMg2H7
mp-975958,-2.605013814,KNaMo(OF2)2
mp-29151,-1.292715459,Li5NCl2
mp-3698,-0.399007352,SrAlSi
mp-28110,-0.774215687,Rb2PtI6
mp-10636,-0.666946613,SrSb2