id,formation_energy_per_atom,pretty_formula
mp-20538,-0.375014981,HoMgIn
mp-600004,-3.277600568,SiO2
mp-653062,-1.302727939,Mo2Cl8O
mp-28355,-0.803481546,Na4Ge2Se5
mp-674298,-3.348676066,Al22CdO34
mp-866200,-0.252539546,Li2SmTl
mp-560228,-2.567323039,K6Ti2O7
mp-776336,-2.143913937,Ti2N2O
mp-21412,-0.12094251,Ce3Tl
mp-562100,-1.253495126,NbS3
mp-754240,-3.647325214,CaSm2O4
mp-559460,-3.212883899,Cs2Ti(Si2O5)3
mp-15559,-0.772414278,KSb5S8
mp-561321,-1.47824427,AsSeS2N2ClF6
mp-3000,-0.3326575,Cr3GaN
mp-761755,-2.339678229,LiCu(PO3)3
mp-706504,-2.24722194,Li2W2O7
mp-24381,-1.287089699,H5ClO2
mp-643397,-0.883742203,H8Pd(NCl3)2
mp-4995,-2.137904112,LiSbO3
mp-11420,-0.666117462,YGa
mp-16293,-2.028050637,KSbO3
mp-772157,-2.994346299,Li4Ti5Nb3O16
mp-2268,-0.322700763,TbAg
mp-697853,-2.771257287,Ba3WO6
mp-542385,-1.385226251,K2MnH4(SeO5)2
mp-4655,-1.7410675,SrTl2O4
mp-34293,-1.102774873,CsTaN2
mp-775187,-2.316447028,LiFe8(BO3)8
mp-685090,-2.069100857,Ga2O3
mp-570485,-0.472500998,SrAlSiH
mp-9167,-1.044281448,SrCN2
mp-3455,-1.008422626,Er(NiP)2
mp-1013730,-1.044311394,Cd5(S2Cl)2
mp-6949,-2.848165253,InF3
mp-760083,-3.203415185,Sr5Nb5O16
mp-12384,-1.303678766,NaEr(PS3)2
mp-35308,0.23890471,CuCN
mp-19151,-2.104268179,BaYCo4O7
mp-775891,-1.759581198,Mn3Fe3(SbO8)2
mp-29505,-1.625651212,Cs3BiO3
mp-555467,-3.527433915,Sr2AlCO3F5
mp-19377,-3.118279467,LiLa2MoO6
mp-10485,-0.944225245,BaLiSb
mp-772045,-2.298232268,SnSb3(PO4)4
mp-13259,-1.167764401,CsHoCoSe3
mp-505297,-0.41554702,NbSbRu
mp-15509,-2.95898577,Yb4Si2S3O7
mp-556528,-0.755781505,In4GeS4
mp-754146,-2.190720895,Rb3YO3
mp-541570,-1.599696835,SrZrSe3
mp-12067,-0.21745546,MnAl
mp-999197,1.416834028,AgN
mp-757209,-2.162323481,LiCuPO4
mp-626267,-1.439008684,Ca(H8O5)2
mp-777900,-3.022475258,Li3FeF6
mp-554777,-2.162766869,NaCuPO4
mp-559128,-2.259525252,CaTeCO5
mp-754837,-2.47843057,Hf2N2O
mp-998197,-2.584572265,RbCaCl3
mp-5207,-2.997147832,Sc(PO3)3
mp-21991,-0.741134932,Rh17S15
mp-334,-4.515250587,LaF3
mp-862366,-0.301035062,Sc2TlAg
mp-559634,-0.431268984,Ni3(BiS)2
mp-3203,-3.70194625,NdTaO4
mp-30165,-2.776228424,Sr7Re4O19
mp-781015,-3.294027904,La2WO6
mp-554379,-1.566157239,AsXeF11
mp-973606,-0.672529601,Nd2IrAu
mp-20246,-0.213736695,Mn4Ge6Ir7
mp-696189,-1.114785187,TlH6(NO4)3
mp-23954,-0.316537383,Na2H2Pd
mp-962057,0.257049977,SrCaSi
mp-23195,-1.632569999,Bi2O3
mp-707304,-2.884552881,Be4Si2H2O9
mp-699146,-2.930692698,Mg3AlFe(SiO4)3
mp-756136,-1.076883202,CaPbI4
mp-4484,-0.945011733,Ba(PRu)2
mp-776199,-0.533767879,AgClO3
mp-758715,-2.341973569,Li2CuSiO4
mp-29976,-1.228553705,Na3BS3
mp-2647,-0.417692417,Al2Au
mp-571217,-0.905883722,La3SiPd5
mp-7167,-0.443535338,SmRh3C
mp-561827,-2.661152067,Cs3TlF6
mp-756998,-1.814596121,CdH2(SO4)2
mp-725,-1.243435661,RhO2
mp-30787,-0.247224105,MoRh3
mp-543047,-2.816745212,KNaCu(Si2O5)2
mp-19513,-2.347139895,SrV2(AsO5)2
mp-8401,-3.442334517,CsMgF3
mp-567345,-0.391363366,NbRh
mp-28212,-2.481952795,Nb4O5
mp-765735,-2.417373343,VO2F
mp-28895,-0.665472491,Ba(P2Pd)2
mp-982615,-0.379492226,Pm2InAg
mp-866067,-0.417394446,Nd2CdIn
mp-779091,-2.331021822,LiFe4(BO3)4
mp-15702,-0.275720718,MgCN2
mp-20721,-0.63974587,NpTeAs
mp-780003,-3.162821757,La2P4O13
mp-754790,-2.692771885,Ti3N2O3
mp-38511,-0.239310687,Ag2S
mp-684694,-1.509645607,Yb2Se3
mp-567636,-0.215036083,VFeSb
mp-669414,-3.010469131,HfPbO3
mp-555644,-2.647149887,Al2Tl3(PO4)3
mp-605867,-0.38173075,CeIn7Pt2
mp-18788,-1.591556772,CrCoO4
mp-14132,-3.744654951,Lu3Al5O12
mp-30589,-0.160498022,LaCu4
mp-780531,-1.85476663,Na3Mn3O8
mp-556781,-1.82074021,Y3CuGeS7
mp-1019102,-0.528376166,SmMnSi
mp-1804,-0.167457571,Fe3N
mp-777789,-1.662588207,Na11Bi5O16
mp-571513,-1.998662731,Rb2NbCl6
mp-850984,-2.357241722,MnOF
mp-21457,-0.939630666,Ti3Cu3O
mp-778731,-3.048775657,Li2MnF4
mp-672360,-0.199361945,Gd(C2N3)3
mp-567720,-0.283693283,CuHgSeBr
mp-19056,-3.090647773,HoMnO3
mp-849083,-1.095007312,Cr2S3
mp-1018747,-1.279277643,LaSbTe
mp-850947,-2.121013289,Li3Mn5Cr2O12
mp-980664,-0.110209402,UBiSb
mp-764383,-2.324009344,MnFeCo(PO4)3
mp-776115,-2.277622239,Li2NbFe3O8
mp-973175,-0.151492518,ScBi3
mp-762595,-1.622903608,Li2Fe3CoO8
mp-8585,-1.39871752,Pd(AuF4)2
mp-3931,-3.385583469,SmSF
mp-641987,-0.735220562,Sb8Pb7S19
mp-766957,-2.032959266,FeBP2H5NO9
mp-644264,-0.509055113,Ca4Mg4Fe3H22
mp-9194,-2.129310137,SmCuSeO
mp-864770,-0.390146961,Ta2MoOs
mp-560641,-3.925047597,Ba12Cl5F19
mp-19291,-2.648096301,NaVPO5
mp-560242,-2.986424837,NaMnF3
mp-21471,-0.451001859,LiFeAs
mp-760629,-2.50557121,LiBiP2O7
mp-530464,-0.610589768,Ag5(Sn3S8)2
mp-17102,-2.155042074,Ba4Ir3O10
mp-581370,-1.612227084,YCu3Se2ClO8
mp-773066,-3.128997805,KTa2PO8
mp-777528,-3.173106642,Li3VF6
mp-697267,-1.980023334,TlP(HO2)2
mp-754174,-3.404273349,Tb2Nb2O7
mp-559052,-2.448374375,LiNb3(Bi2O7)2
mp-754673,-0.734649251,Er6Te2Ru
mp-542328,-0.351788743,Ce5Ga3
mp-8120,-0.617181361,NdCuSi
mp-8262,-0.437280182,K2P3
mp-3611,-4.037094652,Dy2Hf2O7
mp-672292,-1.871450097,Gd3Se4
mp-754942,-3.638365896,SrSm2O4
mp-30586,-0.32242718,HoInCu2
mp-773181,-2.146202791,Cr3WO8
mp-978907,-0.245643018,TbTlAg2
mp-675192,-3.912510605,Ce3Dy2O9
mp-19833,-0.762356087,InAgS2
mp-617266,-2.722729735,SrNb4O6
mp-1043,0.031567765,HfV2
mp-721592,-3.428838869,Ca6Al7O16
mp-975509,0.140124935,RbBa3
mp-557667,-1.862433124,Ge3Pb5O11
mp-972957,-0.658137583,ScTiRu2
mp-779465,-3.073773351,Ti17(NO4)6
mp-22094,-1.325754764,Tl2Ru2O7
mp-21197,-0.453339542,NdIn3
mp-675153,-0.869602894,Ca16HN8
mp-972650,-0.801952581,SmDyRh2
mp-36240,-1.857008581,LiMn8O16
mp-1724,-0.024493144,Er2Fe17
mp-29069,-0.667838678,Na(CuS)4
mp-569050,-1.310749759,NaW6NCl18
mp-19260,-2.359144758,Li2WO4
mp-14964,-3.738626669,Pr3TaO7
mp-764088,-2.671126313,Li6Co2OF11
mp-861639,-0.640401241,Ti2CoIr
mp-849780,-1.406314496,La3H15I10O37
mp-19256,-2.929478673,Er2Mn2O7
mp-1018808,-0.289095008,MgCoGe
mp-9239,-2.631762495,NaLaMgTeO6
mp-15323,-0.386479174,Nd(BOs)4
mp-1730,-0.591121462,BaGe
mp-765698,-1.864031767,Mn6O11F
mp-560982,-1.217955559,K2Cd(NO2)4
mp-753239,-2.275702503,LiSnPHO5
mp-9718,-0.313749313,Rb3BAs2
mp-773525,-1.852147493,LiFe3O4
mp-773725,-2.416043465,NaLi5Mn2P2(CO7)2
mp-556583,-2.828478412,CsSb2F7
mp-17892,-1.378582686,Ca2VN3
mp-781502,-2.46979291,Li2Mn3(BO3)3
mp-541566,-2.195327685,K2MgB12(H2O3)10
mp-780103,-2.017802819,Fe4O5F3
mp-755565,-3.19150302,HoBrO
mp-18883,-3.285359421,YVO3
mp-30574,-0.105116401,CsGa7
mp-16961,-0.920402001,Na6Si2Se7
mp-10349,-1.880111243,Na2SnTeO6
mp-28536,-1.934828165,BaSe2O5
mp-10622,-1.49882018,PrAs
mp-771008,-2.598954045,Ba3(BrO)2
mp-734377,-2.010097407,KCdP3H8O13
mp-998554,-1.379353407,KAgCl3
mp-641415,-2.016876813,PbWO4
mp-769218,-0.566553218,Ni(PS3)2
mp-21374,-0.376596216,Cd(InTe2)2
mp-31225,-0.170773227,Pr2Mo2C3
mp-36819,-1.878854808,Sr(CeSe2)2
mp-999339,-0.317863896,NdNi
mp-773081,-2.988136368,Li3Ti6Zn3O16
mp-9571,-0.660465523,Ca(ZnAs)2
mp-622086,-1.941465376,La2GeS5
mp-777459,-3.035914886,Li3FeF6
mp-6323,-2.633101131,BaYb2CuO5
mp-762538,-1.964946996,Mn13Fe11O32
mp-1005792,-1.565435976,Sm2CuAs3O
mp-773196,-1.867090498,LiCoCSO7
mp-770678,-1.897964587,Li2Cr2O7
mp-677010,-3.053016252,YbTi2CdO6F
mp-616641,-1.1615933,K2UI5
mp-771174,-3.147141677,Ba2B2O5
mp-8898,-3.404913836,TaAlO4
mp-999145,-0.367965416,SmNi
mp-685779,-0.997935168,Sn5(Mo3S4)12
mp-981749,0.591484708,TcAg3
mp-541449,-0.161420298,CrGeTe3
mp-2400,-1.151815902,NaS
mp-20101,-0.46092261,Yb5Si4
mp-769588,-2.58756248,Li3V2S2(O4F3)2
mp-779737,-3.179102129,Ho2P4O13
mp-24683,-2.400797076,RbZn2P2HO8
mp-765704,-1.820769501,Li4Fe3Cu2Sb3O16
mp-31453,-0.337019047,NbSbRh
mp-5449,-3.335615805,Na2Ti6O13
mp-643989,-1.611725536,KHCO2
mp-673118,-2.400863681,Sn3(P2O7)2
mp-561259,-3.19187382,Na3NbOF6
mp-29616,-1.74434027,CsCrCl3
mp-571531,-0.794947278,Cs3Mo2I9
mp-696329,-0.687803294,RbCa(H2N)3
mp-38605,-0.248592491,Sn(BiTe2)2
mp-560676,-0.693815974,CrAgS2
mp-762326,-2.46324502,Li2CuF5
mp-19176,-2.594703731,La2NiRuO6
mp-21190,-1.868932744,PbSO3
mp-542625,-0.862936216,Sr3GaSb3
mp-18967,-2.451680138,Ba2CoMoO6
mp-757874,-2.53646064,LiSiBiO4
mp-686085,-2.517794472,Sc13Cu13O33
mp-3524,-1.002098365,LiPN2
mp-767497,-3.043970051,Li9Ti7Nb5O30
mp-999069,-0.231591036,Ti2AlFe
mp-680747,-0.573258514,K4(BSe)9
mp-769579,-2.163036002,KFePCO7
mp-28964,-0.389754963,Ta4FeTe4
mp-976930,-0.13613358,Ni3As
mp-557121,-0.977519829,K2Sn(AuS2)2
mp-27618,-1.880996126,Na8Ga2O7
mp-980192,0.556935554,YbOs3
mp-3498,-0.55825895,HfGaNi2
mp-19013,-2.412020622,LiV2O5
mp-757082,-2.8346032,LiSi3BiO8
mp-775932,-1.564717041,Ba2YI7
mp-777413,-3.866021599,CeScO3
mp-643243,-0.47987519,Cs2H6Pt
mp-569209,-1.173581693,SbAsPCl13
mp-384,-0.306269206,MgP4
mp-1020016,-1.124615326,Li4Ca2Mg(SiN3)2
mp-504659,-1.007042092,Hf2P
mp-695936,-1.341717995,GeH10(N2F3)2
mp-861908,-0.557145544,TaTiRu2
mp-777551,-3.03707717,LiVF3
mp-974527,-0.31638573,NdSmZn2
mp-962071,0.247310765,MgScTl
mp-757324,-3.801972808,CeZr6O14
mp-865329,-0.058084815,Lu2MgTc
mp-776170,-3.224303731,LiTi2O4
mp-690581,-2.157966435,Li6Mo2O7
mp-639160,-0.71693214,Gd2InGe2
mp-3680,-0.121178447,Er2Fe14B
mp-29646,-0.761961055,HfAs2
mp-6668,-3.066991572,LiTiPO5
mp-752533,-3.591832506,SrLa2O4
mp-557747,-2.943803253,K2SrP2O7
mp-774873,-1.416023054,NbS2
mp-22108,-0.694373667,HoTiGe
mp-33816,-1.484381923,Rb6Fe2O5
mp-2176,-0.468102953,ZnTe
mp-24714,-1.529853576,ZnH4(CO3)2
mp-754073,-3.898329116,Lu2TiO5
mp-19112,-2.055037917,FeSO4
mp-557758,-3.134154487,LaMg(BO2)5
mp-775320,-2.453499451,Li4V3O8
mp-28332,-0.743616384,CsTlI4
mp-22355,-2.604194817,Sr2InSbO6
mp-755894,-1.988344641,Li2O
mp-626161,-3.227264976,Al5HO8
mp-21240,-1.114429516,Gd(SiRh)2
mp-560623,-3.0706479,Mg3(PO4)2
mp-569605,-0.358687102,Yb2Tl
mp-2739,-1.502857066,TeO2
mp-505321,-0.490297851,CsNb(CuTe2)2
mp-997000,-0.528682359,AgHgO2
mp-619279,-0.916950388,In2PbS4
mp-23378,-0.539336707,EuAgBi
mp-568240,-0.142557238,Zn3As2
mp-7285,-0.537072658,HfNi3
mp-6645,-0.320092044,Ba14Na14CaN6
mp-653579,-1.016895102,Re3S4Cl
mp-556488,-2.502608114,RbNiF3
mp-980082,0.025372054,YHo3
mp-1020666,-2.139358724,Li4P2O7
mp-1020670,-3.034591314,SrB4O7
mp-975395,-0.065429592,Nd(Mg4Al3)4
mp-505151,-2.309753308,Ca3CuIrO6
mp-771045,-3.751510787,La2SiO5
mp-978558,-0.826494524,SmErRh2
mp-981548,-0.335744061,YErTl2
mp-24617,-2.40556914,RbGdH2S2O9
mp-707720,-0.835044972,MgH40C10Br2(N2O)10
mp-780202,-2.394093851,Li2FeO2F
mp-567912,-0.704167886,SmHgPd
mp-9562,-0.490830862,LiBeAs
mp-17699,-3.045610543,Er2Cu(B2O5)2
mp-20637,-0.409575271,SmCuPb
mp-541001,-0.750988821,LiInI4
mp-28163,-2.431260064,K2PdF4
mp-756205,-2.792170967,ScBiO3
mp-763318,-2.146384318,LiCo2(BO3)2
mp-774315,-2.216054728,Li10Ti3Co3(NiO8)2
mp-570931,-0.756778416,SrLi3MnN3
mp-756127,-3.169369416,TaNbO5
mp-775767,-1.256469288,AgAsO3
mp-641689,-0.732551561,Ce6In5Pd12
mp-973634,-0.303455152,Ho(AlC)3
mp-680761,-2.274643013,Cd3(PO4)2
mp-14680,-1.748136937,Sr2Ga2S5
mp-22116,-0.516751257,EuGe2
mp-704943,-2.026577695,Li2Mn3ZnO8
mp-974862,0.079300951,Rb3Na
mp-8354,-4.496528155,LaF3
mp-769006,-1.566595093,Li(Bi3O5)4
mp-5339,-1.005695959,CsNaTe
mp-675701,-1.911536601,Ca(HoSe2)2
mp-601241,-1.84983056,Na3YH12(CO5)3
mp-4255,-1.178693582,Ba(CuS)2
mp-557175,-1.139694228,ZnS
mp-976072,-0.198458974,NaAc2Pb
mp-7284,-0.311317597,USi2
mp-559760,-2.790131514,ScIO
mp-759962,-1.68391899,PH5NO3F
mp-30661,-0.870379849,ScGaPd2
mp-632176,0.722105973,TaTcPb2
mp-721067,-2.190219698,LiCaP3H8O13
mp-30784,-0.0589325,Mg2Zn11
mp-631489,0.708012858,Be2CdP
mp-570684,-0.392798917,ZrOs2
mp-644278,-0.591290179,Y2H2C
mp-624909,-2.74625642,LaNb2CuBrO7
mp-38901,-2.396844859,Nd2SmS4
mp-780798,-1.996977531,LiMn2Cr2O8
mp-558933,-2.151632062,Na2Ge4O9
mp-973675,-0.261081368,Hf9AsW4
mp-17868,-1.906637207,NaAsO3
mp-574367,-0.132141863,CuAsSe
mp-849682,-2.434949954,Li2MnVP2(HO5)2
mp-772942,-1.99315917,Cu3(P2O7)2
mp-21278,-0.501666875,CeIn2Ir
mp-1018033,-0.895381129,AgRhO2
mp-776055,-2.250280558,Fe3Cu2Sb(PO4)6
mp-975872,0.527673459,K3Pr
mp-11255,-0.742192912,PrAu
mp-11504,-0.020409949,MnZn3
mp-21455,-3.340099646,EuAlO3
mp-13962,-1.001329773,HfSiSe
mp-505511,-0.369670022,CoAsSe
mp-18815,-2.427536289,KVO3
mp-4758,-3.395390619,K2NbF7
mp-7135,-2.119330954,TbS2
mp-760410,-2.562817076,BePO4
mp-24294,-0.805370965,HgHClO4
mp-542912,-1.313368069,FeH12Pt(ClO)6
mp-542067,-1.441190898,Rb4Ti3S14
mp-542676,-2.329796924,Lu2Te4O11
mp-769301,-3.464790031,Ca4Ta2O9
mp-555018,-1.296971314,RbNa2AuO2
mp-777450,-2.922821778,Ti5Mn(PO4)6
mp-559343,-1.990100474,KCu4(PO4)3
mp-980069,-0.623728989,YbPrRh2
mp-569565,-1.251197971,La3(CrN3)2
mp-25436,-3.185804064,TiPO4F
mp-631568,0.848260152,AlAgB
mp-999335,-0.687858946,NdRh
mp-3379,-2.937802506,K2SbF5
mp-6481,-2.850600271,Na2ZnSi3O8
mp-768222,-4.329144489,BaY2F8
mp-625565,-1.374068304,Cd(HO)2
mp-774043,-2.516322684,MnV(P2O7)2
mp-754804,-3.716256642,La3Ti4O12
mp-775837,-3.907108079,Sc2O3
mp-9985,-0.557200926,NbNiB
mp-978534,0.03944095,SiGe
mp-568673,-0.918772558,Y(SiRu)2
mp-9266,-1.151225346,Na6FeS4
mp-505158,-2.152886955,CsHoS2
mp-780099,-2.441713757,Fe2OF3
mp-29690,-1.381809408,Tl2Te2O5
mp-6125,-3.045630024,RbTi2(PO4)3
mp-631696,1.002995055,Ca2CoW
mp-555736,-1.662094096,BaHg2(ClO)2
mp-999300,1.176433264,PdN
mp-683975,-1.308030392,K6Yb3(PS4)5
mp-674465,-2.494160177,K2SrCl4
mp-30420,-0.784463875,SrAu
mp-765833,-1.926256394,Li6Fe5NiO12
mp-769003,-2.702188808,BaY3Cl11
mp-540622,-1.700741497,RhF5
mp-763253,-2.35342341,LiCoSiO4
mp-867815,-0.528109288,AcGa3
mp-771985,-1.916979604,Ni7(PO4)6
mp-559289,-3.734557732,YTaO4
mp-568904,-0.914203036,KTh(SbSe3)2
mp-971926,-0.330720411,YErRu2
mp-18447,-0.468203983,K3Na2SnAs3
mp-33948,-3.798410715,Ho2Ti2O7
mp-1019542,-3.224876623,BaCaB2O5
mp-864641,-2.246929637,HoCl2
mp-983229,-0.501676908,Pm2ZnRh
mp-780535,-3.732399169,BaLu2O4
mp-7095,-0.78810598,CeCoSi2
mp-31087,-0.8397484,Tb2Pd2Pb
mp-972423,-0.803318814,TbGa2Pd
mp-554614,-1.317833087,Cu3(AsO4)2
mp-764445,-2.287395748,LiNbCo3(PO4)6
mp-777153,-1.526977924,Li2Fe2NiO6
mp-759943,-3.412870655,Al2O3
mp-755031,-2.642372038,KPrPCO7
mp-31073,-2.780902111,Na3B7O12
mp-982010,-0.27323148,Pr2CdAg
mp-30355,-0.325139562,SrAg
mp-23872,-2.910230547,Ca3Al2H6S(OF)8
mp-680384,-2.841255899,Sr10Ga6O19
mp-865523,-0.578879494,TiMnRh2
mp-571342,-0.439373271,TiGa2
mp-763191,-2.964375958,LiMnF3
mp-9472,-0.163467305,LiAg2Ge
mp-707443,-2.343191933,Na7AlH2C4(O3F)4
mp-651786,-2.791442769,Ca5MnSi9(Pb3O11)3
mp-676637,-1.008818749,Na2UI6
mp-555093,-2.470198272,CuB4O7
mp-29947,-0.346883554,K3PSe16
mp-18724,-2.366108764,Sr2CoO4
mp-774732,-1.294601464,Li5BiS4
mp-17888,-3.885180421,K2Zr3OF12
mp-850918,-2.564279107,Li2Mn5(PO4)4
mp-27345,-1.735379794,Na3BiO4
mp-776756,-2.468440475,Li4TiMn2Ni3(PO4)6
mp-754311,-2.414065484,Mg(ReO4)2
mp-567723,-0.803434889,Nd(NiAs)2
mp-35906,-1.519562291,Y(AgCl2)3
mp-568595,-0.353595973,Re4Si7
mp-1464,-0.706029183,Nd5Ge3
mp-554172,-2.237632702,Ba3Zr2S7
mp-6511,-0.689209143,KCSN
mp-10884,-0.354967538,AlFeCo2
mp-675802,-3.938429183,Y4Zr3O12
mp-850740,-2.393593522,Li2V3P4H4O19
mp-146,0,V
mp-686581,-0.24823579,In2(PSe3)3
mp-633,-0.566617578,LaSn3
mp-408,-0.270089122,Mg2Ge
mp-972741,0.549669906,Si3P
mp-761046,-2.836135653,Na3Ti2(PO4)3
mp-24053,-0.817719607,AgH2ClO5
mp-15685,-0.363118356,Na2CuAs
mp-4412,-3.145528355,La4Se3O4
mp-758696,-2.274552923,Li2Cu2F7
mp-769496,-1.957772013,Na3Ni2P2(CO7)2
mp-672223,-1.491680084,Na2Zn2(TeO3)3
mp-11235,-0.108894525,SmMg2Ag
mp-866156,-0.795717338,YGaRh2
mp-5548,-2.713312163,Ta2Cd2O7
mp-634446,-0.68887874,CsAl(H2N)4
mp-974770,-0.321899231,NdZn2Cd
mp-625572,-1.15252743,H5BrO2
mp-17789,-1.736907624,K2RuO4
mp-34439,-3.778811956,Tb10Ti6O27
mp-21298,-0.25649864,NpSi2
mp-561672,-1.461598344,Cs4IrO4
mp-779352,-2.04904781,Mn2O3F
mp-37620,-2.161791225,LiMnO2
mp-764668,-2.554003234,Fe4OF7
mp-569548,-0.90370613,CsAuBr3
mp-8774,-2.274410934,Rb3CO3F
mp-30866,-0.273587593,Rh3W
mp-20369,-0.394509768,CeIn3
mp-21625,-0.487017495,Y2(Ga3Co)3
mp-672979,-2.544807514,LiBiP2O7
mp-974035,-1.255708303,Pb3I2(Cl2O3)2
mp-975019,0.085172096,Rb3Cd
mp-6258,-0.494900073,CeCr2Si2C
mp-753921,-0.564829175,Sb11S18
mp-757527,-3.393023067,LiTi6O12
mp-19717,-0.411575685,TePb
mp-763205,-2.616594874,Li2VO2F
mp-4847,-0.514941851,Y4Al23Ni6
mp-15888,-2.780158218,Ba2YIrO6
mp-557903,-2.630020803,Lu2Ru2O7
mp-559955,-1.887594285,Pr6Si4S17
mp-32780,-0.50760726,AuCl
mp-865182,-2.637630682,Gd2SCl4
mp-769077,-2.075983751,Mg2Te3O8
mp-540287,-2.52915882,Li2Cr(PO4)2
mp-777920,-2.838069677,LiFeF4
mp-972224,-0.546136765,TaGeRh
mp-542453,-2.95127914,NbPO5
mp-27690,-3.547543284,Sr3Zr2O7
mp-567082,-0.898158779,Ti4As3
mp-21904,-1.648783972,PbS2O3
mp-625928,-0.83066083,HI3O8
mp-772972,-3.117978133,Li2Ti2O5
mp-674942,-0.621831767,Na3N2O9
mp-8689,-0.657276954,V4GeSe8
mp-21002,-0.656784387,LaIn2Rh
mp-971985,-0.34823689,TbAlCu2
mp-8781,-0.727620802,SnS
mp-541553,-1.294960369,La10Os2I15
mp-607267,-1.74129038,KPb2Cl5
mp-975110,0.263349007,RbMg3
mp-989571,-2.005402417,Cs2NaInCl6
mp-637196,-0.327127895,K2Pt(CN)4
mp-1059,-0.322330376,NdCd
mp-10566,-0.49662641,Lu3BC3
mp-556654,-3.281552043,SiO2
mp-28373,-0.903180961,BaP3Pt2
mp-6694,-3.244122272,Cs2Zr(SiO3)3
mp-570536,-0.538352466,Rb2AgAu3I8
mp-763177,-2.629783856,Li2VO2F
mp-532384,-3.766653042,Dy2Ti2O7
mp-770409,-3.423420921,Tm2GeO5
mp-769534,-2.258305989,Na3Mn2P2(CO7)2
mp-27303,-0.722945593,NaAg3O2
mp-3289,-0.312224733,LaMgNi4
mp-626024,-1.160270281,H2SeO4
mp-16855,-3.180652341,K3Ta3Si2O13
mp-555311,-1.139727346,ZnS
mp-780128,-2.432821463,Fe2OF3
mp-19324,-3.00772253,Ca2MgWO6
mp-758157,-1.27725876,Na4H2RuN6O13
mp-756018,-2.915566309,BaMgO2
mp-542316,-0.221310122,Co2Mo3N
mp-707703,-0.506800814,Th8Al4H11
mp-773020,-2.838248617,LuP5O14
mp-569547,-0.852998215,Sr6FeC2N7
mp-684708,-2.427027649,Er2S3
mp-6425,-2.607248922,Li3In2(PO4)3
mp-19202,-2.628505442,MgCr2O4
mp-770361,-2.631722617,LiV2BO5
mp-31961,-2.603889883,LiMn2(PO3)5
mp-769611,-2.465677528,Li4V3CrO8
mp-568819,-0.654276051,Bi20(PtBr12)3
mp-774388,-2.966923474,V4(OF3)3
mp-776966,-0.598167875,Sn2N2O
mp-697030,-0.428446005,Mg2H6Ru
mp-571313,-1.316313489,Hf(SeCl6)2
mp-557512,-1.74194384,LaH4C4NO8
mp-684010,-3.438326097,K8Ti5P2(O4F11)2
mp-772318,-1.873368895,Li2Cr2O7
mp-18449,-2.802381126,K2ZrO3
mp-19335,-1.965215628,KCr3O8
mp-4779,-2.822521256,Li2B4O7
mp-24729,-2.169444564,RbGa2P2H5O11
mp-16035,-3.215657718,Gd2TeO2
mp-19841,-0.735042736,ErGeRu
mp-7276,-2.055151058,ScUS3
mp-3241,-0.37190166,Sr(CuGe)2
mp-764048,-1.789860072,Li4Fe2Ni3Sb3O16
mp-5455,-2.567637506,K6Ti2O7
mp-698292,-1.667390536,K2ZrCdH16(CO3)8
mp-720432,-4.223971439,Na2Ca9NdY5HoF41
mp-975452,0.21030113,Hg3Rh
mp-631516,0.801610128,Be2HgTe
mp-531952,-0.730778462,KW3Br7
mp-13263,-0.281963334,Ce2Mo2C3
mp-776813,-2.930600923,LiMnF4
mp-505271,-1.749775511,Ni(SbO3)2
mp-19522,-2.399678301,P2W2O11
mp-21705,-0.754900793,K2In3AgSe6
mp-570558,-1.999808628,Rb2NbCl6
mp-14824,-2.089422869,Sr2HoCu3(PbO4)2
mp-14628,-1.943384549,ZnSnO3
mp-554432,-2.559744868,ReSbOF10
mp-974758,0.093644317,Rb3Tl
mp-675286,-1.472417616,Ca3UN4
mp-28748,-1.155089515,Y3IrI3
mp-771922,-1.626893013,Ba3YI9
mp-15238,-0.337393268,Ho4C5
mp-30415,-0.759419055,PrAu2
mp-4764,-3.268833441,Pr2SeO2
mp-771611,-2.345160731,Li5V4O8
mp-677416,-2.337430341,Na5Mg5In3(SO4)12
mp-560129,-3.041115821,Na3La2(BO3)3
mp-771047,-1.145608099,Mn(IO3)2
mp-560843,-2.610220703,Na4Zr2Ti(CO4)4
mp-12635,-0.278856077,TiAu4
mp-570276,-0.280446977,ZrZn
mp-976138,0.021234236,PrDy3
mp-542664,-3.256577345,Ce2SiSeO4
mp-32891,-2.441369484,Y2S3
mp-867198,-0.701909955,LiGaPd2
mp-560995,-1.501469082,Y(IO3)3
mp-24097,-2.640641134,Mg3Si2H4O9
mp-27281,-1.621020346,LiH3O2
mp-3020,-3.190927063,BaNbO3
mp-768613,-0.099655458,Zr(MnSn)6
mp-569480,-0.01632494,URe2
mp-11147,-1.342284634,Na5CuSO2
mp-18471,-3.636213055,Sr2UO5
mp-975651,0.018127425,PrTm3
mp-764935,-1.424946416,Li(CoO2)2
mp-862621,-0.450771912,GaPt3
mp-5899,-3.693242745,NdAlO3
mp-172,-0.808567299,Nd5Ge4
mp-13985,-2.380753866,Li2PdF6
mp-699008,-2.03906456,Rb2MnV2(ClO3)2
mp-560919,-2.315226227,Na5Y(CO3)4
mp-676280,-2.990441146,NaTaO3
mp-790062,-2.606000657,V5Sn(PO4)6
mp-600171,-0.499843388,ZnH8C4(N4Cl)2
mp-17465,-2.006205988,Gd2Cu(SeO3)4
mp-775136,-1.926442907,Li4Cr3Co3(TeO8)2
mp-6917,-0.552470849,TmAgSn
mp-573498,-0.374516258,Yb(AlGa)2
mp-625174,-1.076418559,H5IO6
mp-766506,-1.249120073,Li3CuS2
mp-767218,-1.618758761,Li9(NbS2)14