id,band_gap,pretty_formula
mp-9749,4.9456,Sr(BO2)2
mp-18048,2.9235,LiZnAsO4
mp-27485,2.6664,Tc2O7
mp-622116,0.9323,ReOF4
mp-541661,4.1295,LiZr2(PO4)3
mp-705558,1.1381,Fe7O9
mp-628617,0.6342,Cs4K2Cu(SiO4)2
mp-776214,2.0381,Hf2N2O
mp-759735,4.3226,Li2Bi(PO3)5
mp-23643,2.1606,Cd5P3ClO12
mp-3943,1.8349,BaTi2O5
mp-680180,4.1344,K3Co(CN)6
mp-23251,4.3224,KBr
mp-557614,3.7125,Cd(PO3)2
mp-707483,2.9733,TiP2H4O9
mp-28563,1.4159,CsAsSe2
mp-2063,3.7756,Pr2O3
mp-774994,1.6204,Li5Fe8(BO3)8
mp-554273,5.4822,AlPO4
mp-556137,4.4513,Li2Ca4Si4O13
mp-757727,4.7844,BaB2H2O5
mp-706243,4.4184,Al2Si3H8(NO5)2
mp-762880,1.4239,LiCoSiO4
mp-626103,4.9129,Al(HO)3
mp-28159,1.5838,As(BrF2)3
mp-558708,0.3744,Nd2Cu(GeO4)2
mp-998156,1.2739,RbSnCl3
mp-4529,5.2088,K2SO4
mp-16033,1.4273,Sm2TeO2
mp-705470,0.0077,Li3Mo4P5O24
mp-764715,1.5902,V2OF5
mp-662547,2.244,PSeCl9
mp-28121,1.8548,La3ReO8
mp-555318,3.924,K2Zn(SiO3)2
mp-672644,3.1975,KNO3
mp-1019784,3.2164,K2SN2O5
mp-542117,3.068,Cd3Se3O10
mp-19198,2.649,CoSO4
mp-770237,0.9817,LiMnPCO7
mp-770846,1.6705,Ba3Sn2O7
mp-722455,1.9381,RbLi2(H2N)3
mp-559459,2.1723,CsInS2
mp-34022,2.5338,Mg2SnO4
mp-753958,2.7025,GdAsO4
mp-557437,2.2306,KBi(PS3)2
mp-695398,0.793,Na3PH24SO15
mp-572291,1.0785,K3ClO
mp-14168,5.8903,K2GeF6
mp-771825,3.1696,Er2TiO5
mp-612740,0.9897,In2Se3
mp-759638,4.0477,Y5Tm11O24
mp-764845,1.8467,LiVOF3
mp-4199,4.0593,Na2S2O3
mp-29394,0.4992,Gd2CCl2
mp-29975,2.7119,K3BS3
mp-4103,1.3647,Sr2Sb2O7
mp-756339,2.45,Tm2TeO6
mp-554278,2.6786,TiO2
mp-6599,1.4261,KNb(CuSe2)2
mp-34291,5.4053,Zr3InF15
mp-568828,1.0313,Hg6BiSb4Br7
mp-554359,3.7922,Cs2Si3SnO9
mp-985594,2.5114,NaAg(CO2)2
mp-971712,1.3684,ZnCdS2
mp-752676,2.5795,TiBi2O5
mp-7368,0.3633,Dy2Se3
mp-561547,4.6034,SrSiO3
mp-571162,1.9127,Ca3(GaN2)2
mp-772131,0.7917,Li3Fe3SbO8
mp-14039,2.0202,K2NaRhF6
mp-13056,3.626,Ba2LaTaO6
mp-9478,4.3465,BaSi4O9
mp-11347,7.7513,TbF3
mp-849394,2.9643,Li2MnSiO4
mp-778661,0.29,LiCu5(PO4)2
mp-8154,2.9431,La2Ti2O7
mp-12673,3.0925,Lu2SO2
mp-13282,0.7754,Sm(ErSe2)3
mp-754605,4.5008,LiLuO2
mp-753846,2.3585,Mg(GaO2)2
mp-867300,1.9903,Rb2Hf2O5
mp-16610,0.7418,Ge3Os2
mp-6134,7.6455,LiCaAlF6
mp-22199,1.258,KIn5S8
mp-32800,2.2732,Ac2S3
mp-770527,0.2638,Li2Mn4O9
mp-756173,0.5527,Li5FeS4
mp-972965,2.8718,GdF3
mp-24507,3.978,Na6Zn3P4H6O19
mp-12924,2.6881,KLaSiS4
mp-6032,5.4876,SrSi2(BO4)2
mp-989400,5.9026,Rb2NaGaF6
mp-627291,1.5975,V3(H3O5)2
mp-769399,3.4624,BaTa4O11
mp-14384,3.8221,Ba3Ho(BO3)3
mp-695582,1.9424,Na3Sr4La3Ti10O30
mp-540737,3.2062,ZrP2H4O9
mp-6695,3.5801,BaCdP2O7
mp-505381,2.5777,NaLi3(H2N)4
mp-557724,2.6644,KBiF6
mp-757383,3.096,LiSiBiO4
mp-21767,2.6294,Si2Pb3O7
mp-19750,2.2034,BaGd2PtO5
mp-581229,2.7756,Gd2Ge2O7
mp-3334,2.655,Tm2Sn2O7
mp-5830,2.5189,Na3AsS3
mp-6491,4.0485,Na2ZnP2O7
mp-778325,1.2005,Li2TiV3O8
mp-752579,3.2765,Tm2TiO5
mp-24041,5.5024,MgH2SO5
mp-625112,1.5663,H8PtO6
mp-643579,4.6548,SbH3OF6
mp-560476,3.2444,Rb3NaTiO4
mp-561355,2.6486,TiSCl6O
mp-9191,1.4701,Na3SbTe3
mp-684723,0.374,TiNb2Zn(PbO3)4
mp-644486,4.8004,KAlH4
mp-764115,1.1608,V3O7
mp-753548,2.1782,Rb6Ti2O7
mp-773069,2.6546,ErTa3O9
mp-29269,4.3163,NaSbF4
mp-685272,1.8479,InSnBr3
mp-505589,0,BaYFeCuO5
mp-775265,3.0446,Li2Mn3F8
mp-559653,4.7733,SrCa(CO3)2
mp-642996,2.691,Li4H6Os
mp-560711,1.8469,Sm10S14O
mp-19359,1.9422,NaFeO2
mp-22996,1.387,SbSeI
mp-10555,1.7903,Ba2LiReN4
mp-570935,4.3818,LiI
mp-571464,1.1251,RbPSe3
mp-753654,3.0257,LiSnPO4
mp-27640,3.2539,Cd(IO3)2
mp-766058,0.2939,Na(Fe2O3)4
mp-769023,4.1259,Ba2Y7Cl25
mp-777396,0.8697,Li2Mn3FeO8
mp-555403,2.6211,K3WF6
mp-1672,2.3931,CaS
mp-556060,0.3341,NdTeBrO3
mp-753955,2.1438,K3H8RhC4(ClO6)2
mp-865427,4.0934,KSrCO3F
mp-505131,0.2628,LiVCuO4
mp-865194,5.3953,TmF3
mp-683902,1.1789,Rb3Nb2AsSe11
mp-556785,4.8746,RbTeF5
mp-5141,3.3129,Na2SeO4
mp-683891,0.4535,MnSb6(Pb2S7)2
mp-15740,2.8662,SrZn2(AsO4)2
mp-765493,2.3822,Ba2Sb2O5
mp-569129,1.449,TlCuPSe3
mp-707532,3.8628,NaH8SeNO6
mp-764941,1.5205,Li3Fe8(BO3)8
mp-766337,3.0649,Ba6CaI14
mp-758270,0.2111,Li3Ti(PO4)2
mp-9775,0.8077,NaSrAs
mp-20463,3.4728,CaPbF6
mp-558183,0.5432,MoS2N2Cl5
mp-556735,2.5426,Rb2Bi4O7
mp-742859,3.1283,Fe3P2(HO)16
mp-567918,0.6159,Ba2Nd7Si11N23
mp-686466,2.2198,Pr16Si16N27Cl3O14
mp-19464,3.8302,Na5Lu(MoO4)4
mp-555611,2.1868,Cs3KRe6C6(S4N3)2
mp-642648,5.1341,KP(HO)2
mp-32833,0.5493,Ho6Se11
mp-690546,2.2498,TiNiO3
mp-865188,5.3052,MgH8(ClO6)2
mp-558396,3.0087,Rb2Te(H6O5)2
mp-690012,1.6301,CrPO4
mp-721158,5.0738,Mg2P2H12O13
mp-997020,0.6517,CuClO2
mp-4438,2.3338,CaSnO3
mp-998350,0.2327,BaZrSe3
mp-772396,2.3034,Li2Cr2O7
mp-1019546,4.8123,BaY4Si5O17
mp-554412,3.354,RbTa(PO4)2
mp-7067,0.2208,Ca(CdAs)2
mp-604725,4.7948,RbMgP(H6O5)2
mp-743601,2.4913,CaFeSn(PO4)3
mp-715275,0.5975,Fe3O4
mp-11773,3.6494,Nd3GaO6
mp-720644,4.8995,PH9(NO2)2
mp-554405,2.0715,ZnS
mp-556434,1.1921,AgBi(PS3)2
mp-560327,2.4734,Na2Sn2C3(O2F)3
mp-24193,4.3479,NaH3O2
mp-780092,2.0462,V6O5F19
mp-4961,1.6488,Na2HgO2
mp-765150,2.6352,LiSn4(PO4)3
mp-22906,4.2433,CsBr
mp-634326,3.2449,GaHO2
mp-29584,0.8856,K4BeAs2
mp-781078,0.9395,Li3V2P4(HO8)2
mp-752605,0.3348,LiAgF3
mp-35208,5.2657,NdOF
mp-3719,2.4442,Rb3NbS4
mp-567855,2.2086,RbGeI3
mp-6174,4.8175,Mg2Al4Si5O18
mp-559558,1.7894,Cu3P8(S2Cl)3
mp-568883,2.0857,Pr3SiSe2N3
mp-608516,4.491,CsGaCl4
mp-36100,2.084,Ca(SmS2)2
mp-752755,1.7037,NaSbO3
mp-767416,0.4485,K3BiPCO7
mp-721988,4.8757,NaAlSi3O8
mp-23370,2.0638,CuW3Br7
mp-11016,2.321,RbCd(NO2)3
mp-17808,2.5331,Nb2Zn4O9
mp-752637,4.3866,HoBrO
mp-18966,1.1606,FeAgO2
mp-555911,4.6463,TlAsF6
mp-605691,4.4848,La2P3H7O11
mp-4324,1.1768,Tm2CdS4
mp-23780,5.1855,Na3H(SO4)2
mp-623984,3.857,PbSO4
mp-770854,1.0328,Li10Fe3Sb7O24
mp-27653,4.6253,LiAlH4
mp-541299,3.7527,Zr4Cd(PO4)6
mp-868632,0.4662,MnOF
mp-19403,2.2617,Ba2CaMoO6
mp-19491,3.8444,Ba2Ni(PO4)2
mp-30198,3.2427,Ba4Ga2O7
mp-766269,4.5292,ZnPH5C2N4O3
mp-16337,0.6611,Ga2HgTe4
mp-560303,4.7555,BaCa2C2(O3F)2
mp-560616,2.7324,KCO2
mp-581749,1.2527,CsTm2Cu3Se5
mp-560831,2.3307,Na6P4Pb3S16
mp-23086,4.3499,ErSeClO3
mp-756241,0.7492,PrBiO4
mp-28473,6.6057,CClF3
mp-771005,2.6285,LuTa3O9
mp-27400,2.754,RbCdBr3
mp-770850,0.7171,Li2TiCo2O5
mp-643788,3.2567,Na2Sn(HO)6
mp-650741,0.7571,Cu4Mo5O17
mp-504957,1.0283,RbReCl4
mp-5246,2.0659,KNbO3
mp-632667,0.6242,YbH2
mp-505368,3.3085,As2Pb3O8
mp-36903,2.9593,KNO3
mp-27805,2.8128,Ba3SiS5
mp-775978,0.4292,Na4Sb2C4SO16
mp-560501,1.7412,Tb3CuSiS7
mp-560032,2.6826,NaNb2AsO8
mp-704946,2.4058,Fe2P4Pb3O16
mp-10437,0.3793,Ba(CuSe)2
mp-23199,5.1132,BaCl2
mp-763059,1.8888,LiV(CO3)2
mp-643026,4.9991,SrH4(ClO)2
mp-777463,0.2947,Li2FeF6
mp-997618,0.7526,BSb
mp-684427,4.5309,LiSb(PO3)4
mp-554523,2.7387,TeBrO3F5
mp-771660,0.8082,MnP2O7
mp-570948,2.1317,LiCaGaN2
mp-24316,4.3673,CdP2(HO)4
mp-763350,0.5655,V3O5F
mp-770754,5.7915,Ho(ClO4)3
mp-780519,1.161,Fe3(OF2)2
mp-14708,3.7188,Tm2Ge2O7
mp-29291,2.3164,I2(OF2)3
mp-570000,0.9694,K3Mo2Br9
mp-767589,1.9594,LiVF5
mp-27283,3.4393,TlPb2Cl5
mp-16363,0.849,CoAsS
mp-27339,4.0194,Sb2(SO4)3
mp-626412,2.7719,In(HO)3
mp-676609,0.7484,Ga6SnTe10
mp-676378,2.4,Sr6Ta2O11
mp-972439,3.0022,Zn3(PO4)2
mp-18727,3.0338,LiCr(SiO3)2
mp-574928,6.4276,CsPH3O3F
mp-18341,2.2839,ErPtF7
mp-776567,2.5131,NaTi2(PO4)3
mp-555344,4.8994,Hf2P2O9
mp-555363,2.87,Na2Cd(SiO3)2
mp-770720,4.0617,Li4ZrO4
mp-23951,4.3384,Cs(BH)3
mp-770862,2.451,Li2Cr2O7
mp-28109,3.495,SbAsO3
mp-752538,2.2088,KSnO2
mp-851033,2.0078,LiCo3OF5
mp-36526,4.2614,AcOF
mp-11919,1.8506,Sr(BeN)2
mp-754009,3.1063,ScBiO3
mp-555978,1.7942,Sm3CuGeS7
mp-758316,1.2729,La10Bi8O27
mp-571093,0.7232,BaAlSiH
mp-707900,5.2027,PrH20S4N5O16
mp-5782,1.9003,AlAgS2
mp-770469,3.8996,Li5TaO5
mp-35714,1.4126,La5TlS8
mp-754363,3.449,Ba2HfO4
mp-23167,2.1809,TlCl
mp-29415,1.828,Cd3PCl3
mp-775438,1.5533,V2OF5
mp-644223,6.6978,LiBH4
mp-6795,3.3703,Ba5Ho8Zn4O21
mp-557084,0.6349,Al2CuSi2O7F2
mp-554395,2.2479,Na5Li3(TiS4)2
mp-3070,3.844,Na2CO3
mp-14161,4.3936,Sr4Al6SO16
mp-573568,0.2208,K2TcI6
mp-36866,2.6763,Al2CdO4
mp-556589,4.714,GaH20C2S2NO14
mp-3934,1.0202,Cu3PS4
mp-23704,4.6558,NaAlH4
mp-675250,3.5889,KBi2F7
mp-23730,3.103,NaMgH3
mp-31012,1.0995,K2(NbBr3)3
mp-4431,1.1846,Ag3AsS3
mp-699447,5.2525,RbLiH4S2(NO3)2
mp-31614,0.7221,Li3Co3(PO4)4
mp-546350,1.3568,TmBi2BrO4
mp-7427,0.2988,Ba(ZnAs)2
mp-14635,1.0458,Rb2VAgSe4
mp-558836,4.2539,MoF6
mp-775215,1.6327,Li10Cr3Fe3(NiO8)2
mp-27998,2.4769,KNb3O8
mp-3556,3.0985,Tm2SO2
mp-768027,0.7405,Na2MnPCO7
mp-770380,2.8602,Ta3InO9
mp-504864,1.4593,YCu(WO4)2
mp-675682,4.0522,Al11NO15
mp-757001,4.0571,Y15TmO24
mp-17621,4.2592,CsReO4
mp-779090,1.1423,VO2F
mp-776226,2.0273,Hf2N2O
mp-28926,1.4765,Ba5(TiN3)2
mp-561443,1.985,Ba3(PS4)2
mp-560633,3.959,Al2SnCl6O
mp-541975,1.6649,Rb3Ta2S11
mp-29149,1.7866,Li4NCl
mp-758948,4.0427,Cs2H6CO6
mp-625147,3.0714,GdHO2
mp-27125,2.5589,Na6MnCl8
mp-3487,5.4612,Ca3(PO4)2
mp-19185,2.0333,Mn3(BO3)2
mp-740722,3.8724,Na3GeH11O9
mp-531661,1.172,Nd10Ti12O39
mp-772156,3.5785,ErAsO4
mp-760762,3.6441,NbOF3
mp-569571,0.8429,Nb3Sb2Te5
mp-559053,4.1813,NaY(SeO3)2
mp-561442,3.3496,Y2Hf2O7
mp-558235,5.0652,CaTaF7
mp-768348,5.6722,Sm(ClO4)3
mp-777481,4.0156,Ba6YBr15
mp-504852,2.0654,Cs2Na3InO4
mp-758240,0.2271,LiTi(PO3)4
mp-29763,1.182,RbMnBr3
mp-17064,2.6255,Gd2Sn2O7
mp-676038,1.3431,Ga5(PS)3
mp-23373,4.6276,BaZnCl4
mp-605503,3.2839,CrP3(HO5)2
mp-626282,3.7935,Sr(H8O5)2
mp-24992,0.8358,FeHO2
mp-22971,1.7752,SbSBr
mp-765697,0.9129,Li2TiFeO4
mp-770726,2.3286,Li9Al(CoO4)2
mp-557472,4.8087,K2Be2(SiO3)3
mp-756427,1.3595,Li5SbS4
mp-769713,1.882,Na4B4Sb2SO16
mp-540784,2.631,Rb2Ti6O13
mp-867341,0.9098,CsAcTe2
mp-558277,2.2823,Ti3(BiO3)4
mp-560772,5.1343,Mg2B2O5
mp-582648,0.9885,RbRe3Br10
mp-769763,2.7186,Li5Cu(HO2)2
mp-19449,3.0334,NaVCdO4
mp-17043,2.38,Tm2ZnS4
mp-29222,4.512,Ba2Si3O8
mp-28871,2.0256,In3SnI5
mp-697022,3.4992,Ca6Si2H6O13
mp-27897,2.3604,Ba(NO2)2
mp-779920,1.8333,Gd2W2O9
mp-18147,4.0529,LiGaSiO4
mp-13798,3.6444,K2NaTlF6
mp-541067,2.0622,HgNO2
mp-28856,2.2158,Na7Au5S6
mp-557600,4.6214,SbC2N(OF3)2
mp-766288,3.4924,Ba2CaI6
mp-23442,3.5099,KCdCl3
mp-5079,4.4269,KSbF4
mp-559489,4.5246,K2ZrSi2O7
mp-20205,0.922,Yb2Cu2O5
mp-556038,4.7251,Ba3In(BO2)9
mp-23800,5.4306,KHSO4
mp-673801,6.1416,Ca3NdF9
mp-14607,1.7859,KSbO3
mp-770296,1.7738,La4Zn3O9
mp-3848,3.0544,BaGe4O9
mp-760417,0.8507,Rb4I2O
mp-19068,2.9583,TmVO4
mp-553924,0.6942,Ag4PIO4
mp-569892,1.3729,Ca9B2(CCl2)4
mp-12171,1.6784,K6MgO4
mp-767753,3.5081,Li2Fe2Si8O19
mp-4156,3.7502,Li2ZrO3
mp-769702,0.2237,LiMn4O8
mp-9392,2.8466,Sr4Al6TeO12
mp-684690,0.5559,Sc2Se3
mp-690617,0.7898,LiMn3Al2(HO2)6
mp-17956,2.1379,Ca2UO5
mp-625998,4.022,LiHO
mp-558323,2.8096,SrBi2B2O7
mp-555477,0.6913,Ag2H3IO6
mp-28980,2.0675,K3BiSe3
mp-2131,3.6688,SrN6
mp-1019967,3.1935,LaSi3N5
mp-22630,1.6689,Sc2PbS4
mp-42255,2.7946,NaCaNb2O6F
mp-572271,4.939,Cs3P7Pb2O21
mp-764142,1.7765,Li5MnV3O8
mp-17455,3.6806,K7Ta(SO4)6
mp-510710,1.4927,Cs2AgSbS4
mp-3930,0.6129,Sc2MnS4
mp-31454,0.7083,TaSbRu
mp-28808,3.3719,TlReO4
mp-561584,3.113,Gd2GeO5
mp-6226,3.7392,NaSn4(PO4)3
mp-753179,1.9705,Li2CuPO4
mp-554370,2.6221,TiSCl6O
mp-22903,3.777,RbI
mp-619510,1.9907,CsHg2Br5
mp-768978,5.9222,Ho2(SO4)3
mp-17160,2.3176,DyPtF7
mp-15791,2.0285,LiErS2
mp-795621,0.4171,Ca2CrO8
mp-23808,4.8372,KScBP2HO9
mp-778832,0.4808,Li3Mn4(BO3)4
mp-28653,3.1872,NdTa3O9
mp-769187,2.5557,Sn5P6O25
mp-29395,3.4482,NaAlI4
mp-555231,3.7852,Ba3Bi2(PO4)4
mp-697913,5.2369,HfP2(H3O5)2
mp-559949,2.7175,Zn3(BO3)2
mp-561545,3.1136,Sn4P2O9
mp-559586,4.8256,BaNa2Nd2Si4CO15
mp-761169,1.9124,Zn2Hg2H2S2O11
mp-29052,2.0591,Cd(W3Br7)2
mp-15500,1.432,Sr4TiP4
mp-555284,3.6862,Ba2NdAlO5
mp-761184,2.5096,Na2SnO3
mp-28408,1.6952,KTcCl3
mp-771645,3.851,Sr2CaI6
mp-560535,4.161,K4Sr(SiO3)3
mp-4666,1.4261,CdSiP2
mp-557752,5.5519,CsHSO4
mp-585354,2.5513,LiCr2P3O10
mp-13326,0.4988,PrLuSe3
mp-989534,1.2208,LaMoN3
mp-680374,4.6996,KAlSiO4
mp-9318,0.2257,KZrCuSe3
mp-27398,1.7925,TlBr2
mp-18635,0.3096,Sr6GaN5
mp-973335,2.4463,Hg2H6CN3Cl5
mp-4558,4.0941,Li4GeO4
mp-554852,2.9904,Y2Te5O13
mp-754519,1.5462,LiNb(TeO4)3
mp-29008,4.6848,Li6MgBr8
mp-697558,4.93,SbH12C2N6F5
mp-7238,4.706,NdBO3
mp-165,0.4627,Si
mp-19224,2.2432,Ca3MnZnO6
mp-15572,0.9449,Na3Ca3AlAs4
mp-754158,3.7288,KNdO2
mp-10161,0.35,KZnSb
mp-705479,3.2246,SnH6Cl4O3
mp-720300,3.6193,H4CSN2Cl
mp-3563,2.5991,Ba5Nb4O15
mp-559551,0.6526,Cu4Bi4S9
mp-756401,2.8348,TaAsO4
mp-554260,3.4557,SnSb2As2F18
mp-15783,2.2898,KSmS2
mp-643277,6.5941,SiH6(NF2)2
mp-752451,0.6311,Zn(CuO2)2
mp-775866,1.7758,Zr2N2O
mp-765358,2.7798,Li3VOF5
mp-643387,4.5062,AlH2PbO2F3
mp-766351,3.551,Ba2CaI6
mp-768597,4.1075,SrLaCl5
mp-17839,3.5517,K3Na(SeO4)2
mp-775918,1.2144,LaTiNO2
mp-10517,4.7579,LiScP2O7
mp-703521,4.4612,Na5P3(H3O4)4
mp-505698,4.1274,SmH18(IO3)3
mp-766301,3.4988,Ba2CaI6
mp-1013547,0.3514,Ca3P2
mp-24759,3.6384,ZnH20Se2(NO7)2
mp-779888,2.6596,Li3Mn2Fe(BO3)3
mp-766276,0.4077,Ba2In2O5
mp-19005,3.4356,Y6WO12
mp-721851,7.0739,BHO2
mp-558380,1.6074,Cr2F5
mp-754177,2.488,CaGd2O4
mp-7386,1.4003,NaAgF4
mp-18556,1.7838,Rb2Cd3S4
mp-781710,1.3598,NbNO
mp-556198,4.3038,Na2Si3O7
mp-770737,1.7671,Ga2WO6
mp-28673,3.6741,P4SO6
mp-542302,0.6221,CuBi3PbS6
mp-560802,2.3684,Te7(OF5)6
mp-1784,5.2602,CsF
mp-697367,5.0823,NaP(HO2)2
mp-676261,2.148,Y3NbO7
mp-778010,2.0492,LaTa2NO5
mp-760205,4.9752,Ba16S16O59
mp-695476,1.8022,NaSr8LaTi10O30
mp-6798,1.8707,Ba2NaReO6
mp-555255,0,SbSNF5
mp-705013,1.9015,CrBi8O15
mp-755488,0.8843,SrTaNO2
mp-559670,4.6817,KBaYSi2O7
mp-766230,4.0529,Rb2NaZn2H5(C2O7)2
mp-758942,3.4281,NaYH8(CO3)4
mp-760811,0.3291,Li5Cu3F14
mp-642729,4.0722,LaH3(CO2)3
mp-14058,4.9474,KMg(PO3)3
mp-560748,1.6947,SbCl3F2
mp-777666,1.1201,Li2V3CrO8
mp-31273,1.5942,La2CuS4
mp-11022,2.1186,ScAgO2
mp-761024,0.3855,Na2Cd2O3
mp-684668,2.8495,CaC2
mp-770346,2.0372,Li2VBO4
mp-771750,3.7019,Sr(IO3)2
mp-6455,5.5486,NaNd(SO4)2
mp-757838,4.0604,LiSn(PO3)3
mp-27623,1.3501,Na6PbO4
mp-555425,1.126,K2Th(CuS2)2
mp-8276,0.8287,Sr(ZnP)2
mp-571440,1.901,K2CuBr3
mp-19499,3.589,KY(MoO4)2
mp-5363,0.5275,Hg2TeO5
mp-1146,1.0319,ThS2
mp-770977,2.2604,Ca2CeO4
mp-978920,2.2372,Tb2Be2O5
mp-867112,0.4682,AcInTe2
mp-558116,2.0236,KMnF4
mp-642661,5.05,BaH2Cl2O
mp-971633,1.8461,NaFeO2
mp-770349,1.6918,LiVSiCO7
mp-769650,3.1258,Zr2Bi2O7
mp-28769,1.17,K(SnSe2)2
mp-554778,4.8028,NaY(SiO3)2
mp-6788,3.3054,La3Ga5SnO14
mp-548469,2.2347,BaZnSO
mp-625801,3.8434,Sr(H8O5)2
mp-623028,2.2306,Cs2NbAgS4
mp-570081,1.6334,CuI
mp-22688,0.2119,CuSeO3
mp-830,1.5701,GaN
mp-20546,0.919,Ba2In2O5
mp-780530,0.6265,Na2MnPCO7
mp-555150,3.6133,KTa(BO3)2
mp-626291,3.3815,Ca(H8O5)2
mp-541375,2.547,CdH4Br3N
mp-767624,1.6314,Li9V5(SiO8)2
mp-754335,0.8766,Ga3NO3
mp-540179,2.1867,Li2Cr3(P2O7)2
mp-755492,0.7073,NaCuP2O7
mp-10334,0.5173,Pr(CdP)3
mp-29424,0.5854,Sr4As3
mp-24796,4.7488,Rb3B12H12Br
mp-850915,1.6418,LiFe2O2F3
mp-28911,3.835,BaReH9
mp-560023,4.0975,NiSnF6
mp-704387,0.8664,NaFe7(PO4)6
mp-560530,1.9359,Nb2Cd2O7
mp-3704,0.4415,Cs2Mn3Se4
mp-19311,2.2381,V2CoO6
mp-600014,5.7292,SiO2
mp-15840,5.4963,BaBPO5
mp-677406,0.5761,CuH12N2(Cl2O)2
mp-1020124,4.6421,MgSiO3
mp-778612,1.5675,Na3CuO2
mp-7693,7.2359,BaTm2F8
mp-571240,1.9383,KLa5(CCl5)2
mp-14630,5.141,Y3Si3O10F
mp-29538,1.9439,BaGdCl5
mp-989553,0.442,Cs2TlGaH6
mp-867203,0.5215,Sr2CdAs2
mp-769122,4.6512,Li4Sb2H6O3F10
mp-733853,3.0513,K2HI2ClO6
mp-755591,2.5307,Dy2TeO6
mp-715598,0.5456,V7O13
mp-28855,1.8991,Cd4OF6
mp-13852,1.8873,Ge3N4
mp-560333,0.9965,Ta2Te4Br10O
mp-32868,0.5656,Ag2S
mp-695894,3.2416,NdH12(NO5)3
mp-569967,4.8144,K2PrCl5
mp-703342,2.7606,Ti2P2H4O11
mp-542079,1.4575,K3La(PSe4)2
mp-581517,1.1967,K2In(PSe4)2
mp-557950,1.7443,TiZn(BiO3)2
mp-780869,3.2151,Tm2WO6
mp-24433,4.2045,KHSeO3
mp-775916,3.2007,LiSnPCO7
mp-554057,5.5715,KPr(SO4)2
mp-997006,0.3989,AgPtO2
mp-651008,0.3275,YbCo(BO2)5
mp-17895,6.2165,K3BeF5
mp-559014,3.5009,Nd4GeO8
mp-1008506,0.584,BaGaSiH
mp-766341,0.7792,NaSb5O13
mp-6687,3.4155,Ba2HoSbO6
mp-7762,1.4615,CdGe2O5
mp-757145,4.7224,SmH2ClO2
mp-781082,0.5895,SrCrO3
mp-764959,2.8066,VF5
mp-9308,5.9638,Li4ZrF8
mp-770376,1.1238,Mn2P4O13
mp-19001,0.8363,SrMnO3
mp-241,2.8997,CdF2
mp-989193,1.9978,SnBrF
mp-32715,2.3347,B36O5
mp-20944,1.3966,Sr2PbO4
mp-767248,2.6071,LiFeSiO4
mp-558273,3.2783,Ca3SiO5
mp-559096,3.0602,Rb2TeH6SO10
mp-984723,2.9616,DyAlO3
mp-570152,0.3412,Co2(SnSe)3
mp-41219,3.1382,BaLiPrTeO6
mp-23050,2.9895,GdClO
mp-706676,4.3176,KPH3NO3
mp-581413,0.9345,Ta2Hg2F11
mp-30058,2.4341,TlSbO3
mp-755461,3.4034,Dy3TaO7
mp-558408,0.2593,Nb4Te9I4O
mp-15077,0.501,Ag7AsS6
mp-984696,0.505,Hf(TlTe)4
mp-31770,0.7369,Fe3O4
mp-19028,2.4126,Na3Fe(PO4)2
mp-8352,5.365,SiO2
mp-2150,0.3703,BaTe2
mp-627557,2.3697,CdI2
mp-6633,4.1769,NaCSN
mp-7012,6.3844,KRb2YF6
mp-13947,7.1223,Rb2HfF6
mp-764340,2.9563,Li2FeSiO4
mp-559786,3.0497,NaAs4BrO6
mp-555678,2.4976,Na4Ti5O12
mp-755309,2.77,Li3NbS4
mp-36066,5.0789,PNO
mp-27205,2.248,TlCl2
mp-556468,2.0329,ZnS
mp-24589,3.5292,K2HBrO
mp-694888,0.2886,Ba8Mn8O21
mp-28508,0.986,Cd(HO)2
mp-24090,3.6581,BaH4(IO)2
mp-4266,4.8578,KAsF6
mp-510642,0,CuNi2(PO4)2
mp-14969,1.1659,BaErCuS3
mp-705588,1.1982,Fe8O9
mp-560785,1.5806,K2Y4Sn2S11
mp-560818,4.1748,Sr5B3O9F
mp-545500,2.8872,BaSbClO2
mp-707983,4.7695,Ca2MgB2H16(CO9)2
mp-744184,2.592,TbFeGe2O7
mp-5331,5.6143,AlPO4
mp-14650,0.2844,Nd10Se19
mp-5827,1.8271,CaTiO3
mp-866521,1.7245,Ca2SnS4
mp-558263,4.6369,YH24C9N6(ClO)3
mp-559636,5.2253,KB3O5
mp-20222,3.3695,Sr2NbInO6
mp-5046,6.9257,BeSO4
mp-778703,2.9961,Li4Mn3F10
mp-18259,0.6564,Ho2Cu(B2O5)2
mp-756050,1.566,TaCuO3
mp-677490,2.9443,Li4Nd3SbTeO12
mp-16445,0.8817,CsSm2CuSe4
mp-557856,1.9511,BCl(OF2)2
mp-28512,5.2793,Ba(ClO3)2
mp-754203,4.6071,SmErO3
mp-780772,3.0188,Ta2O5
mp-753316,0.8915,Li2AgF5
mp-574040,1.6057,K2SnBr6
mp-697792,0.5692,LiMn2(PO4)3
mp-19468,3.1149,YCo(BO2)5
mp-676653,4.5956,Lu4Hf3O12
mp-3751,4.444,AlTlF4
mp-7447,0.6796,Rb2Se3
mp-2008,0.2833,FeAs2
mp-554766,1.337,AgP(XeF5)2
mp-1273,1.3383,CsGe
mp-706979,4.6727,PH6N3O
mp-3978,4.6095,SrSiO3
mp-759915,2.599,Li2BiP3O10
mp-762249,1.559,V(CO3)2
mp-24196,0.7923,Tl2CuH12(SO7)2
mp-557304,5.1218,Sr2SiCl2O3
mp-542417,5.0319,Cs2MgH12(SO7)2
mp-560051,2.0841,RbSiBiS4
mp-625856,2.0457,TeHO3
mp-755336,3.5881,NdIO
mp-561561,2.1243,Cs2KRhF6
mp-23828,3.7147,Sr7(H6Br)2
mp-770550,1.6935,Li2AlCoO4
mp-561379,1.9694,GaRe(Cl3O)2
mp-23237,4.6763,BiF3
mp-759602,2.8185,Sb4O5F2
mp-645687,1.3724,CsTi(PS4)2
mp-685995,0.5546,Ta6Pb4O19
mp-776200,3.4433,GdAsO4
mp-557844,4.9853,KMg4(PO4)3
mp-703476,4.7241,P2H16N4O7
mp-5652,4.804,Y2Si2O7
mp-27688,1.7435,K2TeI6
mp-4019,2.3238,CaTiO3
mp-20495,3.1421,Na2CO3
mp-19386,3.6859,Sr3V2O8
mp-768153,4.2892,Li2AsPCO7
mp-752484,7.0014,YbB4O7
mp-773007,0.2662,LiCu5(PO4)2
mp-4473,0.4864,Ba(CuSe)2
mp-4527,3.7846,Li8SnO6
mp-23906,3.2766,LiH6NO6
mp-568172,1.3591,Ca3N2
mp-18968,3.1236,Li2FeSiO4
mp-552191,1.7729,Ba2TbBiO6
mp-34735,0.6783,Ho2CdS4
mp-17908,2.0969,Ba2TiS4
mp-639662,1.3585,CrF5
mp-640389,2.2753,Cs2Th(PS3)3
mp-581449,1.0363,Re(TeCl6)2
mp-29177,4.873,BaTe2F10
mp-698366,4.5823,ZnH10C4(N2O3)2
mp-558460,2.2521,NaAg(NO2)2
mp-17738,0.4552,Sr2Cu(SeO3)3
mp-14488,3.6772,Li3In2(PO4)3
mp-570158,4.0135,KRb3CdCl6
mp-1265,4.4449,MgO
mp-10932,1.3245,ErSF
mp-770741,2.6427,Mg3(AsO4)2
mp-763190,0.8651,Li2VO2F
mp-27779,1.7411,Hg(Mo3Cl7)2
mp-28845,2.3033,OsO3F2
mp-7928,1.2305,K2PtS2
mp-32755,0.9995,La2Te3
mp-763192,1.6803,V2OF5
mp-779347,1.5216,V4OF11
mp-989618,5.9393,Cs2RbGaF6
mp-776870,1.2443,Li2V3SnO8
mp-779987,1.5145,Fe3OF5
mp-18582,3.487,Rb2Ti(Si2O5)3
mp-11677,0.9179,Sr3(SiAs2)2
mp-774482,3.012,KLiTi2(PO5)2
mp-769637,2.6883,Li5Ti6FeO16
mp-561448,1.5519,Na4Ce(As2O7)2
mp-769210,1.0931,Tb2Pb2O7
mp-2275,2.7933,UF6
mp-772663,0.7631,MnH4(SO5)2
mp-768765,3.1496,Li2Bi2B2O7
mp-2672,2.3476,K2O2
mp-35015,0.637,NaBiSe2
mp-5132,5.8026,YPO4
mp-697657,5.637,CaP4(HO6)2
mp-10914,1.5514,K3Cu5O4
mp-540093,1.0987,CoPO4
mp-24227,1.7978,H8Pt(NCl3)2
mp-30993,3.2887,LaIO
mp-11918,2.4121,Ca(BeN)2
mp-10428,0.409,Cu8SiSe6
mp-849537,0.4499,V6O11
mp-7999,4.9322,Y2Si2O7
mp-23672,5.5067,PH6NO4
mp-758770,3.3113,Li2Mg3Ti6O16
mp-850255,3.3193,LiFeP3H8O13
mp-571281,1.6105,Ge3N4
mp-29379,1.5013,K3BiTe3
mp-850341,1.5857,Fe4O3F5
mp-771241,2.2905,Ta3AgO8
mp-31212,6.4096,K2MgF4
mp-30298,3.8448,KAsO2
mp-541709,1.029,Nb3Tl2Br9
mp-769262,2.2966,K5YO4
mp-27252,2.1783,TlCdI3
mp-530748,4.1391,MgAl2O4
mp-559795,1.568,Rb7NaZn2O6
mp-541950,1.2423,GaN5O14
mp-695780,4.2766,Li2MnP2O7