id,formation_energy_per_atom,pretty_formula
mp-850750,-2.433541889,LiV2P4(HO8)2
mp-1579,-0.194431888,ErC2
mp-2142,-0.074432644,Te2Os
mp-558489,-3.938058126,Ca6Hf19O44
mp-19299,-2.625039733,CrBO3
mp-29251,-1.357085423,Te6Br2O11
mp-720825,-1.948470406,NaPH4O5
mp-38099,-1.712050199,Rb4Cl2O
mp-790064,-2.564093283,V5Co(PO4)6
mp-758855,-2.412243216,LiZnBO3
mp-771061,-2.225568801,MnFeBO4
mp-12802,-0.18904255,AlCu3
mp-22416,-3.611163962,SmTiO3
mp-775256,-2.709216135,Li4MnV3(P2O7)4
mp-31169,-0.32825206,ScAlAg2
mp-707940,-2.086621766,ZrCd2H12(O3F4)2
mp-684508,-2.401733401,LiSb2(PO4)3
mp-7505,-0.526434236,K2P2Pd
mp-982880,0.012071149,Pm3Y
mp-277,-1.693347241,Zr3N4
mp-676168,-0.024665211,Ag8GeTe6
mp-971951,-0.420334173,Zr3Pt
mp-775823,-2.349779291,Zr2N2O
mp-776016,-1.239076876,K2O
mp-34337,-0.864046653,H4NCl
mp-983426,-0.200466269,PmDyCu2
mp-1595,-3.044612104,Nb2O5
mp-20648,-0.475308852,V2C
mp-861644,-0.856612274,ThCdPt2
mp-684815,-3.485125546,Ba4La2Ti3Nb2O18
mp-616218,-0.494560493,Cd(In2I3)2
mp-21505,-0.411554262,YAgPb
mp-5447,-3.158781507,Sm3OsO7
mp-543052,-0.853833748,Tm5Sb3
mp-31207,-0.652319093,Zr5GaSn3
mp-12505,-0.520635637,LuAgSn
mp-31102,-3.368354574,Tb3ReO7
mp-762067,-2.669125593,Li4Ti3V3(SbO8)2
mp-768954,-2.854243793,Ba2YCl7
mp-4578,-1.783137036,Sr2GeS4
mp-560450,-2.271970848,Sb2SNF11
mp-9195,-2.128278686,BaCuSeF
mp-18388,-0.327305871,Ga7Te10
mp-567290,-1.516971605,LaN
mp-977362,-0.620510759,ZnGaRh2
mp-21379,-0.65986994,SmInIr
mp-18929,-2.711684405,BaV2O6
mp-981376,-2.291615363,ScSnO3
mp-11660,-1.815421155,Hf3N4
mp-21520,-3.070245755,NaCeP2O7
mp-24712,-1.681369271,PH5NO3F
mp-10847,-0.296730353,NiSbSe
mp-780075,-2.551377399,Hf2N2O
mp-541010,-0.582833109,Li2Ni12P7
mp-559521,-0.922843498,InBi2S4Cl
mp-862906,-0.291736642,PmGaCu2
mp-14005,-1.602891927,KRuO4
mp-568419,-0.333621335,Mg3Ir
mp-29662,-0.448330146,TlBiSe2
mp-17114,-2.996894566,Nd2Sn2O7
mp-567156,-0.468327007,Pr(Al4Co)2
mp-569803,-0.333963308,B2W
mp-998985,-0.384546178,TiAu
mp-51,0.00286017,Li
mp-11388,-0.382887015,GaIr
mp-690733,-1.690626141,H2SO4
mp-764465,-2.369257192,LiFe2(BO3)2
mp-697305,-3.020372678,K2Na5Al7Si5O24
mp-3886,-0.646094958,Zr2AlC
mp-972327,-0.421444966,Zr2CoOs
mp-29629,-0.155534496,Be3P2
mp-557233,-3.29989203,AlTlF4
mp-641314,-0.785233929,Dy2(GePt3)3
mp-355,-0.688149191,Nd5Si4
mp-32616,-1.060320531,Ga2S3
mp-14260,-2.325676474,ZnAg(PO3)3
mp-769504,-2.047953597,Na2NiPCO7
mp-29458,-1.754512025,Rb3Mo2Cl9
mp-571135,-1.6752284,La3BCCl3
mp-21201,-0.77120634,LaGa3Pd2
mp-4860,-3.045797666,Gd2CuO4
mp-27310,-2.790567717,Na4Sn3F10
mp-981211,0.109371405,ZnIn3
mp-565711,-2.526204549,P2O2F3
mp-7497,-0.623957037,ThSi2
mp-26,0,La
mp-973539,-0.379118567,LuAl3
mp-8676,-0.520271318,Tl(CuS)2
mp-560068,-1.437973237,Na3NO4
mp-695396,-3.005582765,Na3SrTiNb3O12
mp-773242,-2.285263333,Li3V3CoO8
mp-863656,-0.478071041,PmH
mp-763243,-1.877774738,Co3(OF2)2
mp-680400,-1.313730368,K3Ta2S11
mp-780097,-2.340333613,Fe3(OF2)2
mp-1009695,-0.139917299,CaB2
mp-752395,-2.157609688,Ba2Na2O3
mp-3539,-0.332290435,NbGaNi2
mp-764661,-1.287570555,Li3CoNi3O8
mp-29289,-1.312125758,BaPt2S3
mp-26725,-2.454772433,LiSnPO4
mp-1018101,-0.180112937,AlCo3
mp-756654,-2.137883913,SbOF
mp-622602,-1.975686684,NaMoAsO6
mp-28982,-1.318289592,Pd(PbCl3)2
mp-865877,-0.663407415,Ti2RePt
mp-561920,-2.149321295,CsAgF3
mp-21006,-0.79409975,Ce(NiAs)2
mp-22787,-0.374510903,Fe2Si
mp-776667,-1.722608526,Cr3(FeO6)2
mp-11194,-0.326971191,NdMgNi4
mp-865284,-0.268705035,Tm2CdOs
mp-757102,-2.387388716,Sr2RhO4
mp-632693,-0.533156211,Zr5(In2Rh)2
mp-638424,-1.927332646,Sb2S2O9
mp-770504,-2.239603625,Li24MnCr11O36
mp-13972,-3.34268565,Sm2SeO2
mp-676851,-1.506614799,KNO3
mp-11295,-0.281974999,DyCd3
mp-21527,-3.156711901,Na2ScCuF7
mp-15520,-2.947634811,TbZn(BO2)5
mp-780342,-3.792177611,Gd2Zr2O7
mp-631564,0.683149338,MgBe2B
mp-756888,-3.574758739,La2(SiO3)3
mp-866640,-0.497842419,LiMgH6Ir
mp-1174,-0.037762228,MgSc
mp-23516,-0.901077676,Cu2Cl2O
mp-555251,-3.277789687,SiO2
mp-621131,0.102094811,Ti3Ag
mp-558625,-3.287262297,SrZr(PO4)2
mp-2206,-0.28539008,LuCo2
mp-31005,-2.371739764,Zn3(PO4)2
mp-755393,-1.574612612,SrLaI5
mp-510349,-0.47097199,Ag13OsO6
mp-555131,-1.914985028,CsCO2
mp-767539,-1.131819081,Li6SbS2
mp-12448,-2.865666604,LiSm2OsO6
mp-770632,-2.194585528,Li3CrO4
mp-27786,-1.09118269,SbAs2Cl13
mp-775290,-2.143098161,Li4Nb2Cr3Cu3O16
mp-20608,-0.352349739,Tb2In
mp-756755,-2.60006197,Li3Nb3TeO12
mp-5788,-3.29516399,NaUO3
mp-977117,-1.60158241,NaTeO3
mp-30294,-1.776944703,Sr2SnS4
mp-972591,-0.066403162,Sm(Mg4Al3)4
mp-8439,-0.774103495,Ca5(AlSb3)2
mp-6566,-1.946967315,NaZnAsO4
mp-669364,-1.180803338,Cs3Re3(SI)4
mp-865840,-0.835242058,Ti2TcIr
mp-4283,-1.037381212,LaSi2Pt
mp-23751,-0.3105683,CsMgH3
mp-21459,-0.760374006,InAgS2
mp-755464,-3.032436908,CeBrO
mp-10892,-0.641226517,MnAlPt
mp-555268,-2.504319308,K2Sm2IrO7
mp-19488,-2.585446394,Rb2MnSO4F3
mp-1008530,-0.39372136,AlVFeCo
mp-864796,-0.393406224,EuCdHg2
mp-758453,-1.755124532,Na2P2H4N2O5
mp-23553,-1.85721008,GeBi2O5
mp-27798,-0.160961132,B4H5
mp-1009130,-0.474331421,MnN
mp-67,0,Sc
mp-669594,-0.442598485,Pr5Ga3
mp-867896,-0.251132285,ScZnCu2
mp-716723,-2.476998835,V9O17
mp-779763,-3.80909682,Tb2Ti2O7
mp-849583,-2.985311768,YNb2NO5
mp-695843,-0.936894043,SbH7(Br2O)3
mp-570593,-0.296924447,RbAg2(AsSe2)3
mp-16742,-2.087692613,BaAgTeF
mp-570645,-1.415111042,Ca2Si5N8
mp-780282,-2.401800973,Cd(BO2)2
mp-7438,-0.401241843,KZnSb
mp-541339,-1.653242245,SrH9ClO5
mp-4663,-0.767113451,Yb2CdPd2
mp-756344,-2.70991783,Li4ZrO4
mp-33332,-1.526662387,Co5SbO8
mp-722780,-2.485375881,Pr2P3(HO2)5
mp-11831,-0.578549473,YbZnSn
mp-27278,-1.744348511,P(HO)4
mp-21367,-0.669406464,LaIn2Pd
mp-559065,-1.035063815,NaI3O8
mp-464,-1.718079002,HoSe
mp-697683,-1.03781869,PH8N3O2
mp-29499,-0.422169614,Re3Te8Cl3
mp-775938,-3.484388602,TiO2
mp-555967,-1.070374318,TaP4S4Cl5
mp-1006059,-0.022613628,Tl3Bi
mp-29279,-1.092495353,CuClF10
mp-42264,-1.709840662,K2MnH4(Cl2O)2
mp-2740,-0.117924141,ErCo5
mp-34650,-2.049289871,LiMn3O4
mp-27454,-0.273414229,BaLi2Si
mp-16932,-0.002320771,Th2Co17
mp-574122,-0.097358163,UAl4
mp-867757,-2.80614938,RbCaCO3F
mp-3523,-3.668688802,SrGd2O4
mp-754857,-2.423585926,Nb2Ge2O7
mp-757100,-1.02796701,LiCoS2
mp-10417,-1.902782146,KSbO2
mp-21375,-0.361430566,CeMgGa
mp-556819,-1.906886109,Tl2Cd2(SO4)3
mp-676449,-2.826451869,Na4Al3Si3NO13
mp-13954,-3.051328773,Rb2GeF6
mp-707334,-2.435864731,K7P6H2NO22
mp-998749,-1.903928759,KCaBr3
mp-557359,-2.532687488,Cs2Al2Sb2O7
mp-15805,-0.274727289,Mn3ZnN
mp-361,-0.650931665,Cu2O
mp-756054,-2.24283386,Zr2N2O
mp-8217,-3.074735601,Cs2GeF6
mp-18784,-3.231203928,DyVO4
mp-8511,-2.941777116,PF5
mp-38284,-3.810512966,Ce2Nd2O7
mp-768291,-1.546593226,Hg(SbO3)2
mp-27017,-2.484095583,LiSnPO4
mp-773910,-3.3893772,Er2GeO5
mp-617247,-1.775047702,Cu2BiPO6
mp-772856,-0.746252182,CuHgO2
mp-12627,-1.478631952,Nb3S4
mp-1004525,-0.227888214,SmB12
mp-504348,-2.361448481,Li3Cu(PO4)2
mp-22268,-1.125735764,ZrPRu
mp-28232,-3.446303573,MgTi2O5
mp-17569,-2.934593925,SmPtF7
mp-780137,-2.488166168,Li3Mn4(BO3)4
mp-22880,-0.441277787,2-Feb
mp-559264,-1.337241476,Bi2PdO4
mp-1020010,-0.667973734,Li2Ca3N6
mp-757303,-2.650592229,Mg17(As3O16)2
mp-1019094,-0.827072277,PrGeAu
mp-556020,-3.494140602,Li3AlF6
mp-733604,-0.450769223,Ba2Mg3H10
mp-707337,-0.287044956,K3H3Pd
mp-556995,-3.775104908,Nd2O3
mp-767710,-2.614155427,Li2VP2O7
mp-1013586,-0.683904273,Ba3AsP
mp-4906,-1.729638908,Te2SO7
mp-644143,-0.780575011,LaSb2Au
mp-22344,-0.208700484,Sn7Ru3
mp-867625,-2.469256327,ErH(SO4)2
mp-22731,-0.087028626,MnInNi2
mp-997030,-1.89029669,CaAgO2
mp-757457,-3.266635116,LaNb3O9
mp-540862,-4.06368537,Ba2CaMgAl2F14
mp-675585,-1.15280337,Ti7Co3N10
mp-4093,-1.88291117,Cu3(PO4)2
mp-560058,-2.693568133,Li9Ga3P8O29
mp-17850,-2.976911007,K3NaTh2O6
mp-13055,-3.528136276,Ba2LaTaO6
mp-30885,-0.286979137,YZn5
mp-295,-1.529549955,HoAs
mp-866662,-3.334836353,K5La4Si4O16F
mp-560478,-3.614234236,BaY2Si3O10
mp-13898,-3.01847261,Cs2NaInF6
mp-754730,-1.587129424,SrCaI4
mp-16695,-2.61703462,K2ZnP2O7
mp-28630,-0.626564159,Na3BN2
mp-626094,-2.097053359,Al(HO)3
mp-770932,-2.137971664,LiSbO3
mp-29342,-2.266744224,Ca3PCl3
mp-5399,-0.676199558,Tb(FeSi)2
mp-984756,-1.346923592,CsMgO3
mp-27987,-1.346424349,BrF5
mp-558270,-0.637451065,AlS5N5Cl4
mp-558572,-3.569066262,Na2UF6
mp-630875,-0.526418597,Ca2In4Au3
mp-540530,-2.552521628,Li2Co(PO3)4
mp-7376,-0.515535674,Sr3(AlSn)2
mp-4626,-2.682902585,CaCO3
mp-675545,-2.651153862,TaHg2F6
mp-758179,-1.859394411,LiCu2PO4
mp-849538,-2.2293735,Mn6O7F5
mp-29887,-1.117267189,Pr(ClO4)3
mp-540636,-2.682995388,WOF4
mp-976368,-0.806517812,NdAlPd
mp-755165,-3.961922734,YScO3
mp-974933,1.23592768,Rb3Mo
mp-775201,-2.2937976,Cr3Fe(PO4)6
mp-778715,-2.948980926,LiMn2F5
mp-554648,-0.53622038,Ag5IO6
mp-1018148,-0.819011338,ScAu2
mp-756131,-1.666193221,Sr2CaI6
mp-28170,-0.324284457,Ca5Ni15B4
mp-541853,-0.269993297,U2(Co7B2)3
mp-560086,-1.664315484,Nd4(GeS4)3
mp-1017511,0.261622563,Cr3Fe
mp-12382,-0.824669088,ErSi2Ni
mp-631535,0.869164504,BeW2Cl
mp-21540,-3.373007493,Li3TiF6
mp-34263,-1.93586596,Mn2TcO4
mp-561216,-1.609685184,CuGeO3
mp-978596,-1.75481028,Sm2Au2O5
mp-1014111,0.597285405,Ni
mp-973443,-0.401635389,Hf2ReTc
mp-977445,-0.469027338,Nd2ZnIr
mp-976587,-0.810803679,KP2AuS7
mp-541193,-0.617539769,Hg7Cl2O3
mp-1018720,-0.730460497,HfVSi
mp-754840,-2.59226459,TaAsO4
mp-131,0,Zr
mp-20451,-0.983825695,LaInPt
mp-557109,-2.630033596,Na4Zr2(GeO4)3
mp-11826,-0.373400717,CaPd5
mp-570595,-0.618376054,DySiRu2C
mp-542881,-0.439256139,Ce3(CuSn)4
mp-559918,-1.511865015,Ti2CuS4
mp-23093,-2.806338778,Sr2NdBiO6
mp-560611,-1.708238762,HoCuS2
mp-19156,-2.477451538,BaMnO3
mp-28006,-0.345574074,Ca(Cu2As)2
mp-998308,-1.609382672,CsScBr3
mp-540645,-0.8066319,Hg3(ClO)2
mp-2694,-0.498331584,LaAl2
mp-768451,-1.593013993,Cu2(SO4)3
mp-553432,-3.472373468,TiO2
mp-562613,-2.448696225,P2O5
mp-31436,-0.773740922,TbGe2Pd
mp-556524,-2.476425068,Nb2Sn2O7
mp-1016884,-2.599661773,CaGeO3
mp-753108,-3.078391056,Yb2TiO5
mp-541595,-0.140807125,Co3W3N
mp-642821,-0.429739841,K3H5Pt
mp-699375,-1.502388768,Co8As3O16
mp-4960,-0.430336306,Li(PrGe3)2
mp-7575,-0.389164779,LiZnN
mp-626620,-1.562079543,RbHO
mp-753445,-1.991628172,Sb4O5F2
mp-558016,-2.910370785,CaMgAsO4F
mp-557989,-1.995514657,K3Sb5O14
mp-541164,-1.146260619,Hg9(AsO4)4
mp-24112,-1.743943204,Rb2ZnH12(SO7)2
mp-5850,-0.89186738,ErSnPd2
mp-2323,-0.097610515,BeCu
mp-571608,-0.376579529,Yb3Ag2
mp-4212,-0.584396019,Nb3Co4B7
mp-645172,-0.479949299,CsAs2Se3
mp-797,-0.894265385,DyPd3
mp-12383,-1.227610857,Sc2Te3
mp-767568,-2.396126683,Li3Mn4(PO4)6
mp-24277,-2.50691254,KGdP2H4O9
mp-16992,-0.569895387,NaAg3S2
mp-570227,-1.821077722,BeCl2
mp-557845,-2.053506105,Na2TiS2O
mp-3668,-0.095417066,CdGeP2
mp-758836,-3.007522515,Li4Ti3O8
mp-861654,-0.834032502,HoInPd2
mp-770830,-2.82138948,HoBiO3
mp-561241,-2.865696854,USb3O2F17
mp-983123,-0.571278015,HfMgAu2
mp-36864,-2.988150147,Li2TiO3
mp-12987,-0.510547959,Ho2NiGe6
mp-20249,-0.640229427,MnCoP
mp-12557,-0.808505328,SrCuAs
mp-777904,-3.049179078,Li2Ti3CrO8
mp-13190,-3.079395908,KRb2GaF6
mp-850934,-1.57622682,Fe6O11F
mp-567871,-0.572673366,Nb5Si3
mp-541175,-1.105081403,Sc7CoI12
mp-26267,-2.477368186,Li2Cu(PO3)4
mp-865599,-0.928138655,Lu2RuPt
mp-1358,-0.810565002,DyIr2
mp-19194,-2.933172804,BaMnP2O7
mp-781622,-2.344503093,Lu(HO)3
mp-4385,-1.783117555,CdCO3
mp-672376,-1.417903973,Re2Cl7O3
mp-19906,-0.502104681,Zr2InNi2
mp-684804,-1.765733534,MgC2S2(OF3)2
mp-1019100,-0.597910981,SmFeSi
mp-768081,-2.29947177,Na2FePCO7
mp-1013953,-2.070781165,LiCo2P2O9
mp-6800,-2.419361925,KLiSO4
mp-41057,-2.308037381,BaLaCuRuO6
mp-15521,-0.427914672,Ba2LiSi3
mp-735531,-1.258705917,NiH8(ClO2)2
mp-560560,-2.564882348,CdSiO3
mp-31677,-2.439706965,LiCr2(PO4)3
mp-71,0.00854565,Yb
mp-5795,-0.950021854,CaMg2N2
mp-21460,-0.562073159,CeIn2Pd
mp-17718,-2.633824342,CsKNa2Li12(SiO4)4
mp-24240,-0.510170755,K3B12H12I
mp-11118,-1.362311887,CsPrCdSe3
mp-997023,-0.292996717,CuBrO2
mp-8851,-2.663835013,BaCuP2O7
mp-778021,-2.205742818,Mn7Fe(PO4)12
mp-30612,-0.652509733,Er7Rh3
mp-553961,-3.487177529,ScNbO4
mp-865810,-0.402704114,TiTc2W
mp-2317,-0.283281171,LaNi5
mp-982388,-0.060070104,HoTmMg2
mp-707219,-2.47758671,K2Zr2ZnH12(OF2)6
mp-12670,-3.648245506,Ho2SO2
mp-557917,-1.976176735,SbI(OF4)2
mp-5921,-0.461171895,TaAlNi2
mp-779228,-1.316017292,Li4MnNi5O12
mp-13287,-2.03262637,BaCuTeF
mp-560378,-3.620222177,Ca3Ta4(O6F)2
mp-764452,-2.442334414,Li3Co2(SiO4)2
mp-27420,-2.496135442,NaBiF6
mp-485,-0.457524784,ZrNi3
mp-572794,-1.547981188,ReP(Cl2O)3
mp-31468,-0.776906408,LiCaN
mp-686540,-3.093539155,Na3Al2P2O8F3
mp-862787,-0.696585067,AlInSe3
mp-863731,-1.151352188,InH4NCl4
mp-561197,-3.59582573,TaF5
mp-971922,-0.40408951,DyYAl2
mp-5984,-0.583637098,Y(BRh)4
mp-777623,-2.022129565,Na4Mn2C4SO16
mp-979274,0.383269729,UAg3
mp-542297,-2.821687415,Eu2SO6
mp-976273,-0.699461036,Hf3Ge2
mp-770403,-2.645680493,Li4V2(PO4)3
mp-999355,-0.872073246,NbN
mp-769268,-3.417849805,Sr4Ta2O9
mp-541686,-1.402409147,K3GaS3
mp-31058,-1.08913818,Er3InN
mp-541353,-1.205038653,K2(TcS2)3
mp-24164,-1.209916306,CuH2(SeO3)2
mp-2606,-0.337702477,BaPd5
mp-4982,-0.745335998,SmBRh3
mp-980061,-0.513547924,TbAs3
mp-982981,0.377930845,Na3Rh
mp-556696,-3.094929909,Ba2YbB2ClO6
mp-10616,-0.945638938,BaLiAs
mp-8456,-1.023013295,SrAsPt
mp-865402,-0.467328588,TmAlCu
mp-774182,-2.639173447,Li3Cr(PO4)2
mp-27162,-0.220832215,Sc3Co
mp-770898,-2.963594857,Ti3Nb2V3O16
mp-996965,-1.122527659,AgBiO2
mp-4586,-0.713668987,LiAlTe2
mp-20712,-0.699617155,EuGe
mp-541013,-0.730207747,TiI4
mp-976969,0.014226208,MgPb5
mp-755954,-1.692377059,BaSr2I6
mp-772410,-2.354503957,Ti(SO4)2
mp-458,-3.32294129,Ti2O3
mp-554699,-1.951096196,GePbO3
mp-568446,-0.745900573,Er5Si4
mp-569662,-0.519411673,V2NiSe4
mp-16646,-0.584648905,PrMgRh
mp-23347,-1.543886233,Rb4YbI6
mp-27321,-0.856574513,Na3(CuS)4
mp-558928,-0.383166269,KrF2
mp-974492,0.001248054,ReTc3
mp-1288,-0.416969983,AgO
mp-759798,-2.326655436,Bi7(O2F3)3
mp-19810,-0.378638624,TaNiTe2
mp-23819,-2.104920278,Al2P2H9NO11
mp-17189,-2.967109916,K3Ce(PO4)2
mp-541289,-2.475030051,Y2S3
mp-971751,-0.393709152,VRh
mp-752949,-2.199273268,BiOF
mp-495,-0.48035085,LuGa3
mp-5167,-0.698551539,Sm(NiGe)2
mp-30100,-0.513057126,Li2B2Se5
mp-24359,-1.770793185,CaAs(HO)7
mp-555934,-3.003382522,VF2
mp-980006,0.191577289,Yb3Os
mp-23144,-0.725836322,TlRe3(Se2Cl)2
mp-1557,-0.405868539,Mg3Au
mp-1781,-0.139025938,NdRu2
mp-592,-0.773246488,TiRu
mp-17984,-0.155929864,Ag8SnSe6
mp-776056,-2.424501,Mn3Cr2Sb(PO4)6
mp-850875,-2.433830495,Fe2OF3
mp-19230,-2.073297759,K3NaCr2O8
mp-6651,-3.506983096,K2Ta2(OF2)3
mp-766596,-3.320588972,Ti(SiO3)2
mp-976578,-0.657336045,NdH3
mp-771912,-2.117757435,Li4Cr2C4SO16
mp-998352,-2.21409098,BaHfS3
mp-23918,-0.193185029,NaGaH4
mp-780488,-2.08865567,LiCrP2H5O9
mp-37386,-2.496322173,La2SmS4
mp-559773,-2.891860192,Na4Sr(SiO3)3
mp-779311,-2.35544096,LiFeBO3
mp-973992,-0.259620971,Ho3Pb
mp-675271,-1.220464496,Na2CO5
mp-677028,-2.541156774,RbBiF3
mp-1020118,-3.23790525,MgSiO3
mp-771055,-3.566816209,EuZrO3
mp-561549,-3.168274692,K2Be2(Si2O5)3
mp-1384,-0.280242103,LaIr5
mp-778824,-2.30148904,Li4Cr(WO4)3
mp-4207,-0.436583674,USb2Pd
mp-28488,-1.737111834,CuPtF6
mp-559764,-3.620109407,Nd3Si2ClO8
mp-756638,-2.233890202,NbRhO4
mp-31215,-1.55613429,AgPdF6
mp-17193,-1.714103409,Ca3GeO
mp-9539,-3.910670998,EuMgF4
mp-979919,-1.833665583,TaO3
mp-559771,-3.262656385,Pr6O11
mp-865866,-0.876126432,LiZrPt2
mp-565679,-0.969624222,Hg4Se4O9
mp-15438,-2.501165669,ZnP4O11
mp-11106,-0.932413558,PaAs2
mp-556433,-0.430831242,Rb5Tl3O
mp-19234,-3.366774533,Ba2WO3F4
mp-27164,-0.369774291,FeP4
mp-769333,-3.471910088,Ca4Ta2O9
mp-13718,-2.319058138,NaCd4(PO4)3
mp-20308,-0.865603183,TmSiRu
mp-21496,-3.187065086,LiLa4CuO8
mp-997095,-0.698490211,NiAuO2
mp-13676,-2.081183011,TlPO4
mp-557683,-2.29387908,Zn3(BO3)2
mp-24398,-2.242195377,AlP(H2O3)2
mp-27396,-0.969945079,NiCl2
mp-776873,-2.320343476,Cr2O3
mp-769643,-1.764525928,Y(Bi3O5)4
mp-755790,-3.008712991,HfPbO3
mp-30481,-0.530794642,CaPt5
mp-29369,-2.667584262,Sb7F29
mp-30584,-0.280621292,HoCu2
mp-553974,-3.380838558,Ba7Fe6CuF34
mp-5193,-2.179828517,SrZrS3
mp-560456,-1.192694087,Hg2Te2O7
mp-571011,-0.675436225,CsI4
mp-22989,-1.336613319,NaIO3
mp-568545,-0.339520657,Cd4P2I3
mp-18639,-3.687018954,La2Si2O7
mp-780786,-2.094965346,Na6Fe2P(CO4)4
mp-867160,-0.341046548,LiCd2Au
mp-764013,-2.297231031,Li5V3CrO8
mp-767088,-0.77902479,Li3Sb11S18
mp-1005719,0.394282491,Sm3Np
mp-10289,-0.332046032,Ca(BC)2
mp-1011696,-1.029263595,Cs2Se
mp-696969,-0.768865746,Sr(H2N)2
mp-31052,-0.931944305,LaBPt2
mp-541558,-0.929979455,Sc4Ge6Rh7
mp-989595,-2.929447475,CsRb2InF6
mp-743761,-2.389905156,LiFe3SiPO8
mp-29585,-0.427683212,K4CdAs2
mp-644431,-0.456901538,Cd2P3Cl
mp-560387,-3.013071032,Cs2Al2P2O9
mp-10895,-0.31406402,Mn2AlV
mp-541954,-2.088706652,Fe2P2H4O9
mp-555740,-3.257052575,SiO2
mp-29440,-0.354294821,CuMo3I7
mp-781055,-2.505785548,Fe3OF5
mp-690543,-1.610399968,Mn2NiO4
mp-29979,-0.678025338,Nb3B3C
mp-761869,-3.294729964,Sr3Li3La5O12
mp-865251,-0.084923865,TmThTc2
mp-16777,-2.920677547,NaAlP2O7
mp-554129,-1.143322984,Br3N(O2F5)2
mp-38394,-0.888726337,Ba(AlTe2)2
mp-763198,-2.623927721,Li2VO2F
mp-567705,-0.430039687,TiAl2
mp-766942,-2.956673339,Li2MnF5
mp-972180,-0.336614514,YbMgIn2
mp-567485,-0.581556325,CaGaAu3
mp-559352,-2.199454023,Ba4Na(BiO4)3
mp-709021,-2.978759181,CaTi2(HO3)2
mp-22618,-2.079249003,Y(CuO2)2
mp-16863,-1.315479196,Rb3PS4
mp-7591,0.048138435,GeAs
mp-754999,-2.789732121,SrLaCl5
mp-560904,-1.47047647,CdHg2SO6
mp-13270,-0.303618939,CaAg2
mp-625788,-2.314480159,La(HO)3
mp-861983,-0.334144691,Ti2MnFe
mp-867626,-1.389983401,Tl3Os3O10
mp-569089,-1.040804821,Dy(PRu)2
mp-3303,-0.423617228,Ce(AlGa)2
mp-982597,0.29131869,Pa3W
mp-11742,-1.404698546,CsNdTe2
mp-675744,-3.31778947,Yb4Zr3O12
mp-5620,-0.489619041,TmB2Ru3
mp-1008911,-0.293983952,LiMnAs
mp-14457,-3.337263425,Na3Li3Ti2F12
mp-766202,-2.872069233,Li7Ti3(SiO6)2
mp-721312,-1.852872446,Na2H2CO4
mp-11121,-1.365185904,CsTbCdSe3
mp-776894,-2.725811042,NaTiO2
mp-781681,-2.516614972,LiMn(PO3)4
mp-37167,-1.027759891,U12Rh4Se31
mp-752413,-3.690896085,Ca2HfO4
mp-975288,-3.083472771,RbNpO3
mp-15179,-2.455955056,Pr2S3
mp-626563,-1.444250903,Ca(H8O5)2
mp-755834,-1.371705563,AgSnO3
mp-1668,-0.812858717,YbAu2
mp-628305,-0.789827668,K2MnSnSe4
mp-40374,-2.894322595,Na6TiMn(SiO3)6
mp-38417,-2.356732465,Ba(CeS2)2
mp-7638,-3.277089894,LiTa3O8
mp-22209,-0.352287567,Cr3AsN
mp-27194,-0.494015422,SnI2
mp-775811,-2.262016485,LiVFeO4
mp-19038,-2.690630634,SrV2O6
mp-631529,1.216439576,BSe2Cl
mp-763317,-2.263806522,LiVGeO5
mp-773628,-2.369616163,NaV2O4
mp-973069,-0.284683689,HoLuTl2
mp-1827,-0.416697004,SrGa4
mp-865508,-0.392198405,U2Ni12As7
mp-754300,-2.807563425,HoBiO3
mp-560119,-3.299725508,TbCl2F
mp-40251,-3.459360748,BaLaMgTaO6
mp-756299,-2.775734491,Li4HfO4
mp-19968,-0.303292347,CaIn2Cu
mp-752695,-1.623219593,SrCa2I6
mp-13415,-0.673808812,Ta3B2
mp-756448,-1.325603485,LaMgI5
mp-1016851,-0.855183839,HgRuO3
mp-768159,-2.276090665,LiSnPCO7
mp-19210,-1.126649759,CoPtO2
mp-17704,-3.84939105,Tm2SiO5
mp-867343,-0.176730524,Li3Cd
mp-776466,-3.203682811,Ba2Ti6N2O11
mp-28716,-1.755353587,Na2CrCl4
mp-1013710,0.619364587,Ba3BiN
mp-542828,-0.746291098,Dy5Si4
mp-674503,-2.041946953,Hg2SbF6
mp-30402,-0.246023957,K(SnAu2)2
mp-560570,-3.756447411,Rb2NaAl6F21
mp-755659,-3.040335748,DyHO2
mp-8808,-0.849354909,Er2Si5Ru3
mp-636380,-2.069801629,Li(MoO2)2
mp-974856,1.583049573,Rb3Re
mp-763007,-2.650440461,Mn2OF3
mp-754120,-3.40974383,Dy2Nb2O7
mp-756690,-2.137068249,EuAgO2
mp-568224,-1.470714792,Sm3CuSe6
mp-1133,-1.21712768,V5S4
mp-780098,-1.864405738,LiCoSnO4
mp-4802,-2.709206925,La4Re6O19
mp-12490,-1.079725847,CsHoCdTe3
mp-675244,-2.497786925,Yb(NdS2)2
mp-767407,-0.939300518,Li5SbS
mp-23018,-1.861532013,BiSbO4
mp-27336,-0.933178257,CsCuBr3
mp-672972,-2.454422245,Sn(PO3)3
mp-706588,-2.673311732,Na3NdV2O8
mp-743178,-1.359036304,FeH8(ClO2)2
mp-8723,-2.411524643,AsF5
mp-695308,-3.438818686,CaGdTh(PO4)3
mp-30383,-0.44103413,Hf2Au
mp-754503,-2.451086771,ZrBrO
mp-675813,-4.152062587,Sm2Th3O9
mp-686653,-3.320195264,KMg4Al9(SiO4)9
mp-999390,0.092487065,NbCr3
mp-760217,-3.270714548,NaTi4O8
mp-561185,-0.876084734,Cs2Sn2Hg3S8