id,band_gap,pretty_formula
mp-24150,1.8872,LiNd2HO3
mp-17228,0.7529,K2Ni3S4
mp-764842,2.1516,LiVOF3
mp-776952,1.5092,Na2O
mp-5858,2.2009,CdPtF6
mp-705801,1.7536,Sm3MoO7
mp-735578,2.9342,SrMoAsH3O8
mp-6146,2.7828,LiNbZnO4
mp-768235,3.3159,B2TeO5
mp-722834,4.3754,Na6P2H2O9
mp-6553,4.9197,LiSc(SiO3)2
mp-35876,2.0615,Ca(NdS2)2
mp-772437,0.9746,V3Bi2(PO4)6
mp-774797,3.127,Li2Ti3ZnO8
mp-760795,4.2432,Al10ZnO16
mp-759493,4.0245,LiSbP2O7
mp-973225,1.8334,Na2CrH2F8
mp-19329,2.7586,Na2V(PO4)2
mp-28382,1.6936,K4ZnO3
mp-20194,1.8671,CeO2
mp-12829,6.4009,LiCaGaF6
mp-616544,0.3007,RbCr3S5
mp-35269,1.0819,Ca4Sb2S
mp-686614,1.676,TaTi9Al3Zn23O48
mp-570136,1.6308,CuI
mp-14289,0.4826,Ba3P4
mp-17153,0.7874,Ba(TbTe2)2
mp-768942,3.4044,Ho2(SeO3)3
mp-1019781,4.3865,K2Na3P3O10
mp-15318,6.5301,Rb2NaHoF6
mp-15833,4.0963,Zn4P6SN12
mp-557224,2.5715,HgSeO3
mp-30239,2.3221,Sr3(BS3)2
mp-637213,0.4176,La2GeI2
mp-770949,2.2504,Li2VPCO7
mp-562263,1.8593,Cs2PbO2
mp-777899,3.2797,LiFeF3
mp-998412,1.2509,KGeBr3
mp-753879,2.3612,Pr2S2O
mp-5843,0.223,Ce(PO3)3
mp-720853,4.7243,Na2PH5O6
mp-555808,2.4923,Zn8B3H3O14
mp-568052,0.242,K2Ga3
mp-753864,1.4338,Sr2Li2Nb4O13
mp-771026,3.4729,Na2BSbSO7
mp-14069,4.2735,CsAlO2
mp-7331,4.1748,Cs2MgFe(CN)6
mp-16280,1.7426,Ca2Sb2O7
mp-20458,1.9846,PtPbF6
mp-33975,0.3138,CuAsSe2
mp-753371,1.8164,LiCuS
mp-14951,2.6516,Rb3AlO3
mp-568666,0.7082,RbAuI3
mp-680219,2.0095,UPb(SeO4)2
mp-17167,2.8787,Be3Cd4Si3TeO12
mp-735521,1.5097,MnH6(OF)3
mp-558155,2.2191,KFeF4
mp-13563,5.4835,YP5O14
mp-571132,3.5545,LiMg10AlH24
mp-3444,4.0218,ErTaO4
mp-26541,4.2122,LiSb(PO3)4
mp-775001,1.2462,V3FeO8
mp-705154,2.9235,LiCr4P7O24
mp-775910,3.3126,ZrO2
mp-3236,2.8871,Pr2SO2
mp-557809,1.7526,SbSCl9
mp-779877,2.7977,Li6MnFe5(BO3)6
mp-30051,4.0058,Si3CCl7
mp-707071,4.5338,ZnH10C4N6(ClO2)2
mp-510708,2.705,LiFe(SiO3)2
mp-777978,6.6694,BaYF5
mp-540771,0.9971,BaZrS3
mp-3107,3.1271,Ga3PO7
mp-18993,2.9439,LuVO4
mp-770629,3.0927,Li2AlFeO4
mp-677191,0.4395,BaLaZnRuO6
mp-18343,5.3228,BaMgP2O7
mp-557540,1.4011,Rb2AgSbS4
mp-756580,3.3518,SrLu2O4
mp-560835,1.4218,Pr10Se14O
mp-8450,3.3651,Rb2Li2GeO4
mp-31451,1.1532,ZrCoBi
mp-775328,0.6658,Li2TiNi3O8
mp-9655,2.0848,Na4SnO4
mp-27809,0.5278,Ba(GeP)2
mp-649595,4.696,CaMgSiO4
mp-6342,0.3111,LiCa3RuO6
mp-557713,3.6207,Ba2LaTaO6
mp-769646,1.57,Li2TiCo2O5
mp-972448,2.354,SmBS3
mp-20351,0.4546,InP
mp-849525,1.9667,Li2Fe3O3F5
mp-767960,2.4005,Na2FePCO7
mp-561622,1.552,Cs2AgAsS4
mp-555556,5.6138,SiO2
mp-771707,2.7311,Li2SnBPO7
mp-770348,1.8632,Li2VSiCO7
mp-17283,1.8249,K3NbSe4
mp-556375,3.841,Ba2LaSbO6
mp-989620,0.5216,LaTaN3
mp-555065,5.9202,LiEr(PO3)4
mp-766358,2.5,Bi5O7F
mp-570130,3.1932,AlH3
mp-555199,1.5853,TlHgAsS3
mp-780010,3.7086,Ba2GeO4
mp-619034,3.3918,ZnSiO3
mp-1105,2.2376,BaO2
mp-31030,6.9161,KHo2F7
mp-865424,0.464,CsUO3
mp-559309,3.3079,K3ZnNCl4O3
mp-679927,3.0417,Rb2Sc(NO3)5
mp-558159,2.7976,BaTi2O5
mp-706303,5.3696,KCa2P4H9O17
mp-31121,4.4724,HoScO3
mp-540312,1.447,Li2V(PO4)2
mp-1018651,2.2525,Ba2H3I
mp-34326,2.2182,Li6Br3N
mp-867724,1.3311,Mg2PbO4
mp-758675,2.7712,TeH14C2(NO2)4
mp-761140,2.4778,Na4Ti7O16
mp-768388,3.9489,Lu2GeO5
mp-997022,2.377,AgAsO2
mp-542219,6.0728,Li2ZrF6
mp-31604,3.1026,Li2CoP2O7
mp-775484,2.315,Ba6Li2Ti16O39
mp-8755,1.9492,KNaTe
mp-557628,1.1719,AsS(IF3)2
mp-632694,0.9783,ScMo3O8
mp-16591,2.6506,Tm4Si2S3O7
mp-30311,2.4186,Zn3(PS4)2
mp-557456,3.1218,Li4Al3Ge3IO12
mp-733610,4.7381,H7C3N3O5
mp-6972,2.6307,YCuO2
mp-849507,1.1709,LiCoOF2
mp-505607,0.4324,In2Ag2GeSe6
mp-778772,0.7225,Li3Cu3(PO4)2
mp-559777,4.6496,Na5Ca2Al(PO4)4
mp-625841,3.3502,Sr(H8O5)2
mp-753353,1.0404,Sr4LiCu(CO5)2
mp-9138,4.7607,RbPO3
mp-23268,3.5255,NaI
mp-697339,4.9956,Ho2H4CO7
mp-705293,1.9338,Li3V2(PO4)3
mp-685945,1.1145,Er14Ti10O41
mp-769252,4.0862,Sr3Ta2O8
mp-8277,0.7109,Sr(CdP)2
mp-755588,2.5188,Ho2TeO6
mp-17577,0.742,Ca6MnN5
mp-550751,4.5488,BaBeSiO4
mp-756182,3.0781,RbHO
mp-772176,2.0747,Li3Nb7O19
mp-775224,0.9898,NbV3(PO4)6
mp-8153,1.438,NaHgPO4
mp-556135,1.5051,GdSI
mp-707333,3.8945,Na3SiH3O5
mp-770419,3.8853,Sr2Zr7O16
mp-14511,3.7388,NaAlGeO4
mp-9698,0.2868,Rb6AlSb3
mp-697451,4.1185,ZnP2(HO)4
mp-27431,4.3625,Sn3BF9
mp-763831,2.4675,Li8Mn(O2F)2
mp-935266,1.6277,LiC2NO6
mp-744576,3.2611,CoH8SO8
mp-14935,1.808,P3RhO9
mp-560441,3.3054,BaZn2Si2O7
mp-758742,2.6652,KY(H2N)4
mp-542237,5.7393,SmP4HO12
mp-685281,3.081,TiZnH12(OF)6
mp-19512,2.2711,BaV2(PO5)2
mp-978504,2.7916,SmGaO3
mp-28070,1.6459,Rb2TeI6
mp-559203,3.4047,CdSeO3
mp-673134,2.8751,LiSn2P3O10
mp-643701,3.997,TlP(HO2)2
mp-28543,2.7415,Cs4ZrO4
mp-30313,3.2221,Tb2Se2O7
mp-1541,2.6874,BeSe
mp-560037,4.9389,Rb2NaBiF6
mp-642320,2.2872,Bi32P10Pb3O76
mp-19278,3.069,BaCoP2O7
mp-761669,1.8663,Li2Ti3CoO8
mp-744193,2.9469,Ca2CrH2I2O11
mp-18705,2.121,Sr3TbRhO6
mp-770536,2.518,Li2VH2OF5
mp-779902,0.8774,Li3V2P4(HO8)2
mp-3919,4.1301,KBO2
mp-685943,0.3968,Er7(CuTe4)3
mp-28914,1.3981,Cd4P2Br3
mp-769603,1.1838,LiVSO4F3
mp-768457,3.6256,Sb2(SO4)3
mp-1249,6.824,MgF2
mp-28634,4.1785,KI3F16
mp-643706,1.6533,Cs3MnH5
mp-774869,0.4649,Na5Bi2As(CO4)4
mp-29074,0.9351,Te7As2F12
mp-20191,0.3774,Si3Ru2
mp-562542,6.8635,Cs4NaHf3H2F19
mp-23411,2.1407,K2TeBr6
mp-23290,1.8227,PtCl2
mp-7622,3.5196,KSO4
mp-33997,2.0493,TaO2F
mp-764796,1.6373,Li3Fe8(BO3)8
mp-23413,2.9388,NbBiO4
mp-4274,2.2328,SrTeO4
mp-703574,5.836,CaH2(SO4)2
mp-778743,1.707,Li5Cu(PO4)2
mp-757428,3.9371,Cd2Si(P2O7)2
mp-556855,3.9321,Ba3Bi(ClO)3
mp-624200,1.4075,Re3Se4Br
mp-558954,5.8336,Na2Sr2Al2PO4F9
mp-752827,0.7034,Ba2In2O5
mp-773432,0.889,KMnPCO7
mp-23315,1.794,IO3
mp-555664,2.0207,ZnS
mp-771062,1.1766,Li6MnFe3(PO4)6
mp-560550,3.3514,BaBi2(B2O5)2
mp-763215,0.7595,Ni3OF5
mp-743582,2.3111,TiMnCr(PO4)3
mp-775393,2.8112,Li2Cr3SbO8
mp-24517,3.3172,Rb2CaH4
mp-23787,4.7891,Na2ZnH8(SO6)2
mp-555191,4.1,La3Si2Cl3O7
mp-571079,2.5859,TlCl
mp-554227,1.9516,CaU(SeO4)2
mp-757716,0.3856,LiTi(Si2O5)2
mp-560146,2.2816,Ba17Y16Zn8Pt4O57
mp-772048,3.0737,Na2BiBSO7
mp-8515,2.1495,BaSm2PdO5
mp-703444,5.5022,B5H12NO12
mp-761831,0.6312,Li3Cr(CoO3)2
mp-6644,0.3183,LiLa2RuO6
mp-559256,2.919,La4S3NCl3
mp-14646,5.6252,Li2Mg2(SO4)3
mp-23995,6.2698,Al2P3(HO3)3
mp-756180,4.0379,Ba2Hf7O16
mp-703295,3.6429,SrH2I2O
mp-23587,4.3596,HoSeClO3
mp-29330,7.1693,K2H5F7
mp-36329,1.9194,SrUO4
mp-684652,6.8004,BeF2
mp-33882,0.4792,ErAgSe2
mp-560316,0.5629,Hg3SO6
mp-780183,1.2707,Fe2OF3
mp-662523,3.1682,SrTeO3
mp-763832,3.7343,Li3MnPCO7
mp-768154,4.5254,Na3MgPCO7
mp-767668,1.6542,Li9Fe5(SiO8)2
mp-8703,0.9766,Na3SbSe4
mp-757924,1.8141,SbH5(Cl3O)2
mp-767588,0.5943,LiMnF5
mp-30018,3.11,Rb2ZnI4
mp-30309,1.7812,Y2Au5F21
mp-9080,2.1763,CsPrS2
mp-554793,3.5376,YH7C4O11
mp-556774,2.2864,K2OsN3Cl3O5
mp-778451,1.962,Na6Sn2O7
mp-776727,2.9193,Li2Fe3F8
mp-27876,3.074,B2H3
mp-767776,2.9532,P4WO12
mp-760580,1.9705,Li2AgF3
mp-31373,5.2198,H18SO12
mp-27834,1.7341,Tl2PtCl6
mp-18190,0.5281,CaCu3(SnO3)4
mp-662553,1.6669,B2Pb2S5
mp-29709,0.7572,Hg3PO4
mp-772980,1.2989,Li6Te2O9
mp-560196,5.183,Al(HO)3
mp-1403,0.7441,Sm2S3
mp-555217,3.7419,Dy3Se4O12F
mp-5808,1.3272,RbNdTe2
mp-31416,3.4508,Ho3TaO7
mp-776575,3.8379,BaTm2O4
mp-768670,4.4383,K3MgPCO7
mp-2630,1.6742,SrC2
mp-28588,2.7941,Na2BeO2
mp-9770,0.6102,Ag8GeS6
mp-707767,2.3097,Na2Sn2H4O5
mp-763290,0.6454,V3(O2F)2
mp-12485,2.0214,NaSm3SiS7
mp-743600,2.3786,ZrFeP3PbO12
mp-1016821,0.9508,BaSiO3
mp-28318,2.1443,HgTeO3
mp-555974,2.5048,Rb2U(SiO3)4
mp-22991,0.6035,CsVI3
mp-767772,2.2881,Li3V2F9
mp-27535,0,Ca(IO3)2
mp-15999,2.127,Li3AuS2
mp-780300,2.6006,Li2VP4(H2O3)6
mp-24012,1.507,HoHSe
mp-18074,5.4502,NdF3
mp-762329,4.0425,Li7Sb2P7O24
mp-552292,1.3084,SmBi2IO4
mp-557964,2.4272,Li9S3N
mp-745114,3.7564,Cd4NiH20(ClO)10
mp-600032,5.7155,SiO2
mp-775430,1.7675,LiBi3(IO2)2
mp-643431,1.7208,AgH4WS4N
mp-781048,1.0863,Fe4O3F5
mp-850971,2.9262,LiMnBO3
mp-29357,1.2857,Zr6CCl14
mp-554038,2.4404,CaTa2O6
mp-18042,3.6622,SrTb2O4
mp-24270,4.6289,K(BH)5
mp-18702,2.0246,AgPO3
mp-581922,2.5856,CsMo3Br3Cl4
mp-989541,4.1306,Rb2NaSbF6
mp-557373,1.5735,Cu2WS4
mp-614803,3.5447,Cs2TeO3
mp-631519,0.8339,TlBCl2
mp-505561,4.8932,Na2ZnP4(H4O5)4
mp-555340,0.6264,AsIF12
mp-755789,3.0643,Na2Be2O3
mp-776697,0.9746,Na5Bi2As(CO4)4
mp-557836,5.0787,Na5B2P3O13
mp-38819,1.7343,Ho10Ti6O27
mp-764846,3.8407,Li2MnF4
mp-695373,1.5011,Na4Al11Si13Ag7O48
mp-698329,3.3405,ZnH16C6(N3O5)2
mp-866832,1.7379,Ca2SnS4
mp-21713,0.7267,K2In3CuSe6
mp-766835,3.8611,InP(H2O3)2
mp-961711,1.3298,ZrSiPt
mp-571379,3.8337,InGa2Cl7
mp-753683,2.2466,Sn2OF2
mp-28586,1.56,AgXeF9
mp-568439,6.3935,KNa(BH4)2
mp-556347,0.6691,K2ReCl5O
mp-703527,4.8565,H2CN2
mp-6300,1.0512,RbHgSbSe3
mp-607712,4.1556,Lu2(CN2)3
mp-19100,2.2556,Sr2CaMoO6
mp-560349,2.848,La3NbO7
mp-15896,0.2433,Cu2SiSe3
mp-769622,0.7689,Mn9(FeO6)4
mp-997048,0.2782,AgBrO2
mp-540689,2.3106,Ba2SnS4
mp-626193,5.019,Sc(HO)3
mp-769246,3.6451,Sr4Ta2O9
mp-768800,5.8704,Ho2(SO4)3
mp-775968,0.3353,Mn3Fe3(TeO8)2
mp-735512,3.704,CrH17N4Cl2O3
mp-675469,3.9736,Zr3Sc4O12
mp-772376,2.7882,Ni(IO3)2
mp-6977,3.3533,Be3N2
mp-779073,3.7829,LiMnF3
mp-849364,1.2564,Li2Mn2P2(H4O5)3
mp-7714,2.0802,Li4UO5
mp-753668,3.484,Ba2GdSbO6
mp-1020626,4.187,Zr2Ga(PO4)3
mp-866641,2.1114,K2Na(H2N)3
mp-757796,5.6848,Al2H10S3O17
mp-19183,2.9545,Li2NiO2
mp-850751,2.0338,LiVP2(HO4)2
mp-743881,1.9763,K2V3P4H4O19
mp-5248,0.3937,Na5SnAs3
mp-849704,1.4757,LiFe4(BO3)4
mp-849636,0.912,SrTaNO2
mp-37990,5.4564,AlPO4
mp-982366,2.5124,Tb2S2O
mp-865758,1.0351,YbGeO3
mp-772825,3.3736,Ta2BeO6
mp-17112,0.844,K3Ge4Au
mp-757964,2.2785,LiSn2P5O16
mp-23063,4.3699,Ba4Cl6O
mp-556576,2.0639,ZnS
mp-1019381,4.6157,Al7Si3BO18
mp-7684,0.9501,Tl3AsSe3
mp-7667,1.2894,K2S3
mp-21283,1.3722,Cs2PbO3
mp-556884,4.3692,CaSi2(NO)2
mp-675475,1.5098,Li2MnBr4
mp-604773,2.4999,Mo8P9H56N12ClO56
mp-680122,5.1858,TlB5O8
mp-557992,3.0723,InTeClO3
mp-763497,2.6044,LiV(PO3)3
mp-17220,2.8458,Rb3TaS4
mp-28013,1.1719,MnI2
mp-26285,0.2786,LiBi2(PO4)3
mp-4066,3.05,KGaO2
mp-677233,2.9383,NaAl3Tl2(SiO4)3
mp-626605,4.7793,Al(HO)3
mp-1019547,5.6396,BaLi2Mg(PO4)2
mp-780872,0.982,LiMnSiO4
mp-756591,2.5893,Sm3NbO7
mp-984332,4.6134,Rb2Sr2(CO3)3
mp-12535,2.0535,K2ZnTe2
mp-863427,3.2388,Li3Si2BiO7
mp-8609,2.1708,Li6UO6
mp-557213,2.2897,Te2Xe(OF5)2
mp-686239,3.211,Sr5Li25La7Nb8O48
mp-740717,5.2707,LiH4SNO4
mp-772090,3.1259,Li4Ti9O20
mp-780283,1.8016,Li4V3OF11
mp-698134,4.5685,K2Na2Sb2H6O3F10
mp-12199,1.3956,Hg3(PO4)2
mp-5860,2.0773,K2HgO2
mp-9397,0.4238,HfTlCuSe3
mp-18179,1.434,Cd4SiS6
mp-686019,2.5885,Y2Ti2O7
mp-768077,2.4234,Na2FePCO7
mp-6692,3.7661,Ba2PrSbO6
mp-774240,3.5455,Na3Li3Mn2P2(CO7)2
mp-26157,4.4631,LiSb(PO3)4
mp-997042,0.3971,TlCuO2
mp-651741,0.7025,Cs2Re2Se5
mp-3252,2.248,SrTe3O8
mp-24091,5.1606,GaH4NF4
mp-29136,0.4832,Sr6Cu3N5
mp-24608,5.9971,K2AlH2OF5
mp-675065,4.1635,Er4Zr3O12
mp-561569,4.1067,CsSb2F7
mp-772114,2.4928,BaLaI5
mp-29355,5.2511,NaTeF5
mp-10928,3.9013,BaC2(SN)2
mp-567219,2.3083,Li4Ca3(SiN3)2
mp-850961,2.1569,LiFe2OF5
mp-4264,3.1807,K2S2O5
mp-10523,1.4407,CeSiO4
mp-772864,2.7725,Rb2Ge2O5
mp-541113,2.3442,Cs3P7
mp-762930,0.128,Li3(NiO2)5
mp-18439,0.4711,Ba3AlSb3
mp-571468,1.5893,Ho3CuSiSe7
mp-768756,3.585,Li2Bi(BO2)5
mp-5874,0.6737,TlAgTe
mp-566278,1.2401,WO3
mp-585400,2.671,LiFePO4
mp-768281,3.3127,Ho2Ge2O7
mp-19055,0.6789,HoCrO4
mp-6665,1.9823,Ba4LiW2N7
mp-3593,1.4921,Ta2Sn2O7
mp-556161,2.0379,ZnS
mp-554003,4.1875,Sr4Li(BO3)3
mp-773512,3.769,Tm2WO6
mp-777588,3.478,Li2FeF4
mp-769046,2.5561,Si2Sn2O7
mp-561473,3.8659,CaTaAlO5
mp-558465,3.7648,LaAg(PO3)4
mp-559071,1.6414,Ag2Bi2S3Cl2
mp-3916,3.54,K2(SO2)3
mp-764983,1.5093,Li3VCr3O8
mp-781503,0.8146,VOF2
mp-7995,4.4511,Mg2BO3F
mp-29826,3.4506,ZnCN2
mp-643770,3.8556,Rb2MgH4
mp-556335,5.2549,YP5O14
mp-1018090,0.2981,CaGaSiH
mp-569309,1.3136,RbMnCl3
mp-768960,5.3981,Li5BO4
mp-754883,3.9759,KHoO2
mp-778355,3.8007,BaYBr5
mp-3516,1.8374,UTeO5
mp-9160,1.9691,La4Au2O9
mp-755544,1.5341,YTlO2
mp-35152,0.6092,Sr2H5Rh
mp-19508,3.2707,SrCr(Si2O5)2
mp-24217,4.6108,Sc2P3(HO3)3
mp-28745,0.6361,Nb2Te6I
mp-3858,2.6175,NaTaO3
mp-570753,2.9071,Tl3PbBr5
mp-17149,2.1919,Sr3ErRhO6
mp-14048,4.4332,Sr3Al2(SiO4)3
mp-24328,4.434,RbHCO2
mp-570045,1.3715,Sm3CuSiSe7
mp-24229,4.6282,Na2CaH10C2O11
mp-611316,2.6589,AsN(OF3)2
mp-23489,2.5289,CsIO4
mp-28158,3.2105,K4Be3O5
mp-8422,2.9755,Sr(AlSe2)2
mp-698605,1.2736,CaGaBiB2O7
mp-755366,0.4914,LiCu2PO4
mp-560464,1.8389,UTl2(TeO4)2
mp-22905,6.2506,LiCl
mp-30027,0.4991,RbCrCl3
mp-581639,3.6702,Mg2BN2Cl
mp-24749,4.5223,CdH6(CO3)2
mp-861891,0.8221,SeBr2
mp-18309,2.0868,Ba2CdS3
mp-31374,5.2561,H30S2O21
mp-757327,0.2165,Li7Ti2P7O24
mp-650112,0.8768,Fe3O4
mp-677734,3.6779,K4PH5Se3O16
mp-20474,0.2557,MnCu2GeS4
mp-685928,1.1198,Rb5Tc3S7
mp-17862,0.5665,Ag3Ge5P6
mp-771393,2.0654,Na3FeBAsO7
mp-555129,1.3376,La3S3N
mp-17183,4.5437,Na2BeSiO4
mp-781740,0.6217,Li2V3CrO8
mp-14390,5.0014,Na3GaP8O23
mp-29401,0.8865,Er5C2Br9
mp-714969,0.5332,MoO2
mp-561194,1.9406,La10S14O
mp-4426,2.4407,Li4SeO5
mp-24123,5.5367,Rb(BH)6
mp-755217,1.4555,Cs2BaO2
mp-703275,1.9217,NaSr3NdTi5O15
mp-996953,0.5763,CuHO2
mp-777676,2.3764,LiVF3
mp-3200,2.5191,Lu2Ti2O7
mp-769517,0.634,NaMnPCO7
mp-9216,0.731,Ca3Tl2O6
mp-554184,0.8667,Ho2Cu(BO2)8
mp-675488,2.3628,Li6I3N
mp-645159,1.5192,FeBiO3
mp-28593,4.2774,Li3BrO
mp-768333,3.0295,DyYO3
mp-861911,1.2026,Sb2S2O
mp-775748,0.7323,Li4Cr3Fe2Sn3O16
mp-9173,2.4827,TiO2
mp-23885,5.0475,SrH12(ClO3)2
mp-28766,1.1259,K2TiS3
mp-568252,1.7603,Rb2Hg2PdCl8
mp-769393,1.7962,DySeO3
mp-561350,2.8305,AlBiSCl4
mp-4175,0.7021,ZnSnP2
mp-32527,0.9562,V(PO3)4
mp-627401,2.3587,CdI2
mp-759263,3.4543,Li3Bi3(PO4)4
mp-639714,2.3594,TlVTeO5
mp-763464,0,Zr4MnO9
mp-574909,1.3163,K2NbS7
mp-626481,3.8282,Al(HO)3
mp-673624,2.1515,MgNb2(PbO3)3
mp-768573,4.215,Lu3AlO6
mp-850924,0.7617,K8Li9Cr4O16
mp-14322,3.283,Ba3Tm4O9
mp-9370,2.4152,RbLuS2
mp-770618,1.9195,MgMnO3
mp-679989,2.1517,Bi(Mo2Cl5)3
mp-773603,2.0938,Na3V(BO3)2
mp-572597,2.0906,SbPS4
mp-675835,2.3928,Dy2Zr8O19
mp-556539,2.5614,BaSb2Xe5F22
mp-29603,0.4985,Rb2ZrTe3
mp-707327,1.7333,Na4Sn2H26Se6O13
mp-558370,2.6264,Ca3TiBe2Si2(As3O10)2
mp-23392,3.9837,K4CdCl6
mp-556226,5.2407,NaB3O5
mp-33406,1.8707,La2PbSe4
mp-4784,1.2731,CaPtO3
mp-1011834,3.0065,Na2CoP2O7
mp-667286,0.9527,Re6Te7Se8
mp-4497,4.9186,Si2N2O
mp-24585,4.0276,LiZnPH2O5
mp-684745,2.434,CsTiNb(O2F)2
mp-23690,5.688,CaH4SO6
mp-6527,5.2896,Na3Li3In2F12
mp-570706,1.2582,CsTiCu3Se4
mp-777451,3.6065,Li2FeF4
mp-553926,5.7974,NaLiB4O7
mp-23391,0.4014,Tl4CrI6
mp-766196,3.3586,LiSiBiO4
mp-7752,0.2574,Sr3SbN
mp-23450,2.4311,RbIO4
mp-5368,6.0472,Li2GeF6
mp-4930,2.9491,TiAl2O5
mp-746690,2.802,FeP3(H2O3)3
mp-570652,1.2956,Hg6BiAs4Cl7
mp-772240,4.4362,Li2MnH4(SO5)2
mp-769310,2.6264,SiBi2O5
mp-777843,2.3947,Ge2N2O
mp-707060,2.4946,NbCl4F
mp-18766,3.3855,Si(NiO2)2
mp-3775,6.9889,Na2SiF6
mp-5145,0.8419,Ag3AsSe3
mp-10281,2.0481,ZnS
mp-5560,1.4544,Cd3(BO3)2
mp-5056,0.3519,Mn2SiS4
mp-675562,6.6631,K2ThF6
mp-557673,5.6217,RbBe2P3O10
mp-29190,0.855,Te4MoBr
mp-774907,2.4458,KLiZnS2
mp-757504,2.6528,ZrTi2O6
mp-767771,2.1015,P3W2O13
mp-27808,2.9285,Te6Cl2O11
mp-758880,0.3804,LiCuPO4
mp-763428,0,Li3Fe3CoO8
mp-23539,3.0025,KSn2Cl5
mp-777801,3.8624,LiFeF4
mp-557728,1.312,KCu4AsS4
mp-15781,2.7098,KLaS2
mp-769016,3.2568,Pb(BrO3)2
mp-28898,2.2435,BaCN2
mp-27472,4.3499,NbSbF10
mp-754876,3.853,SmAsO4
mp-768296,2.3485,Ti3Bi2(PO4)6
mp-19084,3.5091,BaMg2V2O8
mp-555297,5.4778,HoH16C2S2NO12
mp-720334,5.1678,Na2P2H14O13
mp-715474,0.505,MoO3
mp-769506,2.3889,Na2FePCO7
mp-13033,2.3186,MgTe
mp-540923,0.7994,Ba3SnP3
mp-4682,3.4501,ZnSeO3
mp-3080,3.076,Ca5(Ga3O7)2
mp-22856,1.3813,Bi2S3
mp-766343,3.6188,Ba2CaI6
mp-730074,4.3526,Rb2CaH8(N3O)4
mp-28555,4.6838,RbSF5
mp-764478,1.3937,LiFe8(BO3)8
mp-752705,2.3564,Ti(PO3)4
mp-632684,5.1071,NaPH3NO3
mp-760109,4.2186,Bi2(SO4)3
mp-554957,1.9785,Te3I(OF5)3
mp-18949,1.8412,VFeO4
mp-30937,3.0705,HgClO3
mp-689925,2.4446,Cs2NiF6
mp-42175,4.3268,Ca2AlH10ClO8
mp-616439,0.3763,Cs2CuCl4
mp-705024,1.3518,VP2O7
mp-762244,0.5476,Li2AgF4
mp-780857,1.6297,Li2VOF4
mp-772086,2.7284,Ba4Sn3O10
mp-758329,4.701,YbCO3
mp-1039,2.3612,MgTe
mp-764087,1.4828,V2(OF)3
mp-557480,2.9057,Te2SO7
mp-17841,3.4252,Mg4Nb2O9
mp-9297,1.506,Ba(AuO2)2
mp-779250,2.2217,Li2FeBO4
mp-18928,2.4844,Mn2SiO4
mp-776984,2.5765,HoInO3
mp-2878,5.7279,Li3PO4
mp-677467,2.6169,Rb5Te3H4NCl18
mp-13973,1.3185,Gd2SeO2
mp-677094,2.0091,MgTi3Nb2(PbO3)6
mp-541071,4.1955,KZrP2HO8
mp-29250,1.5484,Li6VCl8
mp-555082,3.4975,CsLi5(BO3)2
mp-776278,0.9256,Ti2N2O
mp-696735,5.469,H2O
mp-22598,0.9331,In2O3
mp-505288,5.0391,CaAl2Si2(H2O5)2
mp-637982,0.4902,As5Pb3S10
mp-12016,2.8229,Rb2SiS3
mp-769070,4.0974,BaY4Cl14
mp-680463,0.3034,Rb4Pb9
mp-31885,3.9374,Li3Fe2P5O16
mp-775787,1.6252,Hf2N2O
mp-551873,0.8178,Ca4Bi2O
mp-17906,5.4589,PrF3
mp-6062,5.3553,YAl3(BO3)4
mp-733929,4.3922,P2H4PbO8
mp-10837,4.9741,Na2MgInF7
mp-759696,3.9605,Li2Bi3P9O28
mp-1020598,2.4613,Y4Si2S3O7
mp-763429,0.3428,LiFe(CoO3)2
mp-12244,2.9901,Cs3TiF7
mp-555604,4.507,Na3Dy(Si2O5)3
mp-3397,4.1494,Ba2TiO4
mp-9059,4.3819,KLi6TaO6
mp-559482,2.6238,Ti2Bi2O7
mp-684017,3.2398,Y2Te4O11
mp-775830,3.1461,Na3Bi(BO3)2
mp-23544,2.5139,Bi4Br2O5
mp-12286,2.9093,Sr2Ta2O7
mp-3584,5.6771,NdPO4
mp-758086,4.1893,LiSn(PO3)3
mp-756798,3.8712,Sr2CaI6
mp-23861,3.5117,BaHCl
mp-684120,0.7108,LiCuP2O7
mp-570379,5.3388,Cs2LiLuCl6
mp-758002,0.226,Li3Sn(PO4)2
mp-505046,2.7177,Gd3Sb5O12
mp-759329,3.635,LiBi3(P3O10)2
mp-23742,5.6249,CsB5(H2O3)4
mp-19305,2.1517,CaV2O5
mp-29129,3.3858,K2Te2O5
mp-626218,1.1867,SbHO3
mp-7035,3.9326,CaMgAsO4F
mp-29592,0.8372,RePCl9
mp-553921,3.7666,Pm2O3
mp-699469,4.658,AlH15N5Cl3
mp-554584,1.6112,Rb3NaPbO4
mp-760059,2.7285,Bi5O7F
mp-753069,1.5239,LaBi5O9
mp-560872,3.907,Mg10Ge3(H2O9)2
mp-690794,1.8409,Sr2HN
mp-772862,3.4355,BaSr2I6
mp-35311,1.5367,ZnCrF6
mp-18501,0.6733,Ba(AgTe)2
mp-570974,6.514,BeCl2
mp-556860,4.6704,Y2Si2O7
mp-992141,0.9633,Cs2IBrCl6
mp-19030,0.8078,La4V5(Si2O11)2
mp-1019797,5.2949,K5B(SO4)4
mp-754128,3.5715,Ba3Hf2O7
mp-29679,1.4776,Hg2PCl2
mp-767403,1.1225,Li5SbS
mp-651155,1.708,TeI4
mp-558151,1.0878,Ag2PO3F
mp-14434,2.4019,K3GeS3
mp-16889,1.4179,Na6Sn2Se7
mp-560311,4.1281,Na3FeF6
mp-698033,4.9791,KAl2P2H8O12F
mp-759224,0.7918,Li5CuF8
mp-19343,2.8028,Co4B6O13
mp-23416,4.6751,Li2ZnCl4
mp-31603,1.2299,LiCo(PO3)4
mp-569613,1.568,Ba2P7Cl
mp-16543,1.6405,Cs3Cu5O4
mp-699232,4.8264,Mg7P2(HO2)8
mp-560246,2.5235,LiUP(H4O5)2
mp-557773,2.8897,Sc2TeO6
mp-755447,0.777,Li3Cu3(PO4)2
mp-776091,3.9083,LiLaNdSbO6
mp-638104,0.9179,Nb2Tl4Se11
mp-27123,2.1122,ErSeF
mp-30931,2.1323,Na4SiSe4
mp-643412,2.0157,MnH2SeO5
mp-23350,1.9363,Rb2PtCl6
mp-573340,1.3182,Nb2Se17Cl12
mp-779012,3.4213,Tm3TaO7
mp-19317,1.1102,Yb(FeO2)2
mp-10167,0,Na3SbS4
mp-995181,0.22,SnGe
mp-1020163,4.051,Na3Li2Al(SiO4)2
mp-9570,0.8197,Ca(CdP)2
mp-504426,5.4792,LiH5S(NO2)2
mp-561138,3.464,RbGd(PO3)4
mp-19085,2.2303,Ba2MnWO6
mp-561305,3.5871,BaZnSiO4
mp-763324,0.2811,Li2Mn2P4H3O16
mp-607291,0.7183,Cu3BiS3
mp-24538,2.0825,K2H12Ru(SO7)2
mp-24120,4.0365,CaAsH5O6
mp-24534,3.8563,CaH4SeO6
mp-541431,4.6543,Ca2SiH2O5
mp-764375,1.9708,Li2VF6
mp-21604,0.9908,Sm3InS6
mp-570966,2.8614,ZrP2NCl11
mp-28802,4.7912,Sr4Zn3F14
mp-37693,0.331,Nd2EuS4
mp-867708,1.4009,LiLaNb2O7
mp-707469,3.8886,P5H5N6(Cl4O)2
mp-28145,1.2844,Rb2PdCl6
mp-697027,5.0695,NaSi2(HO2)3
mp-24355,2.8166,KBe(H2N)3
mp-695172,4.3446,CsMg12Al25Si29O108
mp-3160,4.8384,Pr2Si2O7
mp-766789,0.8589,MnF3
mp-774524,1.9105,Li3La5Ti6Nb2O26
mp-690493,1.8226,LiMoO2
mp-772534,2.4565,LaSCl
mp-9819,4.9784,RbAsF6
mp-29012,2.3467,Tl2AgI3
mp-771697,2.6984,La2Ga4O9
mp-3376,2.583,Sr2SnO4
mp-28129,1.4617,Ba(SbS2)2
mp-651332,2.2103,SeBr4
mp-775960,0.7168,Li4V5Sb3O16
mp-1008556,2.6693,AlGaN2
mp-776663,0.8137,Li4Ti2V3Fe3O16
mp-966800,0.528,InP
mp-8871,3.2504,CsNa2BO3
mp-540330,2.2954,Li2V(PO3)5
mp-540736,4.3964,BaCd(PO3)4
mp-772427,2.5233,Li3Fe(PO4)2
mp-505743,3.298,GaBPbO4
mp-555235,5.5034,SiO2
mp-18844,1.8726,CaMn2O4
mp-684,1.5761,BaS2
mp-1008557,3.0501,AlBN2
mp-776083,2.3644,HfSnO3
mp-19050,0.375,Ca2MnO4
mp-30308,1.4294,TlAuF6
mp-772958,5.4556,Er2P4O13
mp-756545,2.3925,Er2Zr2O7
mp-573697,4.8492,CsCl
mp-541912,1.4867,ZrBrN
mp-779704,1.2322,Si(HgO2)2
mp-625230,1.9872,Zn(HO)2
mp-707302,2.2833,Rb10Al24Cd7(SiO4)24
mp-776024,3.4707,CaZrO3
mp-505397,0.3524,K2PuCl6
mp-23966,3.4068,MgH2SeO5
mp-572546,1.4859,CsRe(Cl2O)2
mp-30983,5.3412,CaP4O11
mp-5295,3.9346,LaNbO4
mp-556776,5.4198,Sr(PO3)2