id,formation_energy_per_atom,pretty_formula
mp-772829,-2.742449055,Ba6Li2Ti7(Sb3O14)3
mp-9080,-2.123689615,CsPrS2
mp-554793,-1.773256656,YH7C4O11
mp-556774,-1.323452539,K2OsN3Cl3O5
mp-778451,-1.870582493,Na6Sn2O7
mp-505536,-1.209840393,CeTe2
mp-776727,-2.817712812,Li2Fe3F8
mp-27876,-0.135385031,B2H3
mp-767776,-2.491631174,P4WO12
mp-983430,-0.877024599,HfZnPt2
mp-1018793,-1.464546629,LuSe2
mp-15839,-1.114345708,NdSbPt
mp-760580,-2.461077207,Li2AgF3
mp-31373,-1.475876427,H18SO12
mp-20291,-0.288052988,YPb3
mp-27834,-1.172238996,Tl2PtCl6
mp-8634,0.07991219,Mn
mp-18190,-1.852705309,CaCu3(SnO3)4
mp-21306,-0.810600037,TiCoSi
mp-627640,-0.987594894,Eu(ClO4)3
mp-662553,-0.865129477,B2Pb2S5
mp-29709,-1.520446488,Hg3PO4
mp-20426,-0.075385775,Fe2As
mp-772980,-1.962575714,Li6Te2O9
mp-865001,-0.567928184,HfScOs2
mp-1018758,-0.454503979,LaZnIn
mp-560196,-2.109282095,Al(HO)3
mp-672325,-0.431908308,TbIn2Ni
mp-607475,-0.345787446,Zr4In5Co2
mp-972954,-0.048852785,MgCd2
mp-603,0.019466781,Be2Ag
mp-1842,-0.423890167,NbAl3
mp-20553,-0.563739767,GdMnSi
mp-11256,-0.798352152,ScAu
mp-773163,-1.985268933,Li2Fe3SnO8
mp-1403,-2.469543477,Sm2S3
mp-555217,-2.504242575,Dy3Se4O12F
mp-15652,-0.567526377,Rh3(PbS)2
mp-10435,-0.377769284,Y(AlSi)2
mp-5808,-1.396957047,RbNdTe2
mp-31416,-3.899075388,Ho3TaO7
mp-849495,-1.633869742,Li4Mn2Cu3O10
mp-776575,-3.753545117,BaTm2O4
mp-768670,-2.560804434,K3MgPCO7
mp-2630,0.029515814,SrC2
mp-28588,-2.188709391,Na2BeO2
mp-9770,-0.404055184,Ag8GeS6
mp-707767,-1.581043277,Na2Sn2H4O5
mp-28088,-0.588980655,Ca5(AlBi3)2
mp-763290,-2.717150065,V3(O2F)2
mp-12485,-1.998511253,NaSm3SiS7
mp-743600,-2.779776783,ZrFeP3PbO12
mp-1016821,-2.860805794,BaSiO3
mp-676040,-0.600404658,NiPS3
mp-652608,-0.307343271,UWC2
mp-28318,-1.18676942,HgTeO3
mp-555974,-3.238348429,Rb2U(SiO3)4
mp-22991,-0.914488294,CsVI3
mp-767772,-3.176205298,Li3V2F9
mp-27535,-1.547583211,Ca(IO3)2
mp-530409,-1.418261104,Hf3(Bi5Cl9)2
mp-15999,-1.262438208,Li3AuS2
mp-780300,-2.041129287,Li2VP4(H2O3)6
mp-24012,-1.484591584,HoHSe
mp-4298,-0.127375099,Tm(MnSn)6
mp-20228,-0.28722533,MnGaNi2
mp-5578,-0.490089147,LuB2Ru3
mp-20928,-0.25643094,Sb2Ru
mp-18074,-4.267778449,NdF3
mp-981396,-0.548112425,Y(BIr)4
mp-762329,-2.557652362,Li7Sb2P7O24
mp-552292,-2.265216005,SmBi2IO4
mp-557964,-1.213772675,Li9S3N
mp-1824,-0.277259778,NdNi5
mp-10896,-0.338686809,Y(MnAl2)4
mp-11903,-2.440512978,LiEu2IrO6
mp-19,0,Te
mp-745114,-1.372375089,Cd4NiH20(ClO)10
mp-600032,-3.276633053,SiO2
mp-775430,-1.516121472,LiBi3(IO2)2
mp-643431,-0.716887266,AgH4WS4N
mp-971761,0.464579645,ZnSi3
mp-22433,-0.734680106,Np(SiIr)2
mp-781048,-2.305076753,Fe4O3F5
mp-755431,-3.078347489,PrNdO2
mp-850971,-2.525872778,LiMnBO3
mp-29357,-2.159005693,Zr6CCl14
mp-554038,-3.434279468,CaTa2O6
mp-18042,-3.738276835,SrTb2O4
mp-752879,-3.077033679,Li3Ti4O8
mp-24270,-0.370923261,K(BH)5
mp-18702,-1.980842471,AgPO3
mp-672336,-0.498077302,Li5Ca7Sn11
mp-581922,-1.248392597,CsMo3Br3Cl4
mp-989541,-2.895117676,Rb2NaSbF6
mp-31182,-0.646948699,ErAl2Ni
mp-558434,-2.3241468,Ca3CuRhO6
mp-568782,-0.644145619,Dy(PPt4)2
mp-616481,-0.321801824,NbFeTe2
mp-675119,-1.483884957,Os(OF)2
mp-4852,-0.341580905,Ni(RhSe2)2
mp-819,-0.114793257,HfCr2
mp-557373,-0.837327032,Cu2WS4
mp-614803,-1.846365919,Cs2TeO3
mp-631519,0.429432252,TlBCl2
mp-457,-0.154516644,CeBe13
mp-505561,-1.931326278,Na2ZnP4(H4O5)4
mp-973544,-0.188279644,Lu2BeOs
mp-776173,-2.647969784,Ti3Cu2Sb(PO4)6
mp-867901,-0.326383401,ScTaTc2
mp-555340,-2.044524757,AsIF12
mp-755789,-2.362361987,Na2Be2O3
mp-862703,-0.555286877,Sc2AgAu
mp-776697,-1.878500938,Na5Bi2As(CO4)4
mp-9771,-3.592764595,UTi2O6
mp-557836,-2.702455555,Na5B2P3O13
mp-38819,-3.670467603,Ho10Ti6O27
mp-977573,-0.336348161,HfH3
mp-764846,-3.03810586,Li2MnF4
mp-695373,-2.80212974,Na4Al11Si13Ag7O48
mp-698329,-1.060825421,ZnH16C6(N3O5)2
mp-866832,-1.569306652,Ca2SnS4
mp-21713,-0.750273891,K2In3CuSe6
mp-779706,-1.352480116,AgGeO3
mp-766835,-1.944951433,InP(H2O3)2
mp-961711,-1.014770608,ZrSiPt
mp-850991,-2.236987234,Mn6O7F5
mp-571379,-1.50341284,InGa2Cl7
mp-753683,-2.179755955,Sn2OF2
mp-28586,-0.983632696,AgXeF9
mp-864893,-0.365181596,NdAgHg2
mp-568439,-0.445924895,KNa(BH4)2
mp-541997,-0.875768827,K3FeSe3
mp-975255,-0.786950009,RbPdO3
mp-22695,-0.905814291,NdSnPd
mp-556347,-1.775864393,K2ReCl5O
mp-703527,-0.199087216,H2CN2
mp-13311,-0.470415198,SrAlGe
mp-6300,-0.529326732,RbHgSbSe3
mp-607712,-1.043298724,Lu2(CN2)3
mp-19100,-2.908275462,Sr2CaMoO6
mp-673105,-2.039947412,Cu3(P2O7)2
mp-560349,-3.746660779,La3NbO7
mp-31219,-0.173452888,Si3W5
mp-974420,0.120627052,Re3Mo
mp-929,-0.309166903,ZrCo2
mp-17746,-0.82990296,HfGePd
mp-978995,-0.573628763,TmMnRh2
mp-15896,-0.282870113,Cu2SiSe3
mp-769622,-1.764347306,Mn9(FeO6)4
mp-997048,-0.202641246,AgBrO2
mp-540689,-1.792967036,Ba2SnS4
mp-626193,-2.304175086,Sc(HO)3
mp-769246,-3.443954554,Sr4Ta2O9
mp-768800,-2.807449449,Ho2(SO4)3
mp-26074,-2.183378115,Bi2(PO4)3
mp-775968,-1.696013592,Mn3Fe3(TeO8)2
mp-735512,-0.999181578,CrH17N4Cl2O3
mp-675469,-3.893966681,Zr3Sc4O12
mp-1018707,-1.599029147,GdSe2
mp-680417,-1.418756493,CeSb(SBr)2
mp-975253,0.519368194,RbPr3
mp-772376,-0.861312429,Ni(IO3)2
mp-21765,-0.323037133,Pd17Se15
mp-9429,-0.924353994,USe3
mp-697818,-2.690397035,Sr2Pr2MnCuO8
mp-5839,-2.975978922,TiPO4
mp-6977,-1.20371766,Be3N2
mp-779073,-3.014182247,LiMnF3
mp-849364,-1.84968351,Li2Mn2P2(H4O5)3
mp-7714,-2.909720889,Li4UO5
mp-21044,-0.897466472,NdGeRh
mp-266,-0.48761599,Zr2Pd
mp-22222,-1.07242328,HoSiIr
mp-5267,-0.135056717,Np(Al2Cu)4
mp-570456,-0.65803901,Eu(CoAs)2
mp-7945,-0.712228907,V3S
mp-753668,-3.075370209,Ba2GdSbO6
mp-1020626,-3.05231916,Zr2Ga(PO4)3
mp-866641,-0.523808854,K2Na(H2N)3
mp-757796,-1.978940348,Al2H10S3O17
mp-2825,-0.914940981,ErPd3
mp-19183,-1.56064828,Li2NiO2
mp-850751,-2.435263629,LiVP2(HO4)2
mp-743881,-2.436713256,K2V3P4H4O19
mp-22400,-0.326655014,MnCu2SnSe4
mp-975179,-0.800818029,RbTlO3
mp-5248,-0.41540679,Na5SnAs3
mp-754767,-0.72683978,Fe3(SnS4)2
mp-981214,-0.037863203,SrMg5
mp-631465,0.63566532,YRhW2
mp-849704,-2.334304618,LiFe4(BO3)4
mp-849636,-2.766301484,SrTaNO2
mp-984796,0.377864952,BaTh3
mp-571606,-0.127575913,Sm4Mg3Co2
mp-37990,-3.128226704,AlPO4
mp-982366,-3.045332472,Tb2S2O
mp-541859,-0.345887207,Tb12(OsC3)5
mp-972183,-0.72276902,ZrGaPd2
mp-865758,-2.7873227,YbGeO3
mp-772825,-3.208227658,Ta2BeO6
mp-17112,-0.273902569,K3Ge4Au
mp-31426,-0.504224865,HoInNi
mp-21246,-0.543093815,Ba2Pb
mp-567325,-0.552627817,Tl4CrI6
mp-757964,-2.45631751,LiSn2P5O16
mp-973446,1.500907062,K3W
mp-23063,-2.983772043,Ba4Cl6O
mp-20913,-1.191866773,UGeS
mp-6603,-2.858416583,Sr2CeIrO6
mp-556576,-1.127361166,ZnS
mp-10772,-2.743024148,CeAsO4
mp-984779,0.085913302,CeDy3
mp-1019381,-3.351608941,Al7Si3BO18
mp-975802,-0.486017951,PrSb3
mp-7684,-0.316262592,Tl3AsSe3
mp-862975,-0.325776371,PmZn2Cd
mp-22018,-0.146743964,Hf(MnGe)6
mp-867170,-0.720110275,LiGaPt2
mp-14192,-3.55532167,Na2UF6
mp-7667,-1.189380487,K2S3
mp-21283,-1.557556944,Cs2PbO3
mp-556884,-2.418564407,CaSi2(NO)2
mp-675475,-1.196644371,Li2MnBr4
mp-604773,-1.597448579,Mo8P9H56N12ClO56
mp-972653,-0.348481309,SmHoTl2
mp-680122,-2.697892507,TlB5O8
mp-849410,-2.452068167,Li2Mn3(BO3)3
mp-557992,-1.687712054,InTeClO3
mp-571500,-0.446083046,Ho(FeB)2
mp-695277,-2.943200255,BaLaTiCuO6
mp-18845,-2.610378122,Ba2FeWO6
mp-975397,0.150796845,RbBa3
mp-29474,-1.859163669,Na2Ti3Cl8
mp-763497,-2.615153623,LiV(PO3)3
mp-17220,-1.600108498,Rb3TaS4
mp-600232,-0.102852776,NpNiSn
mp-11222,-0.174674227,Sm3Al
mp-28013,-0.45523857,MnI2
mp-26285,-2.311150115,LiBi2(PO4)3
mp-4066,-2.208124007,KGaO2
mp-677233,-2.89499603,NaAl3Tl2(SiO4)3
mp-626605,-2.09744766,Al(HO)3
mp-1019547,-3.035475836,BaLi2Mg(PO4)2
mp-30797,-0.355739883,Nb5Te4
mp-780872,-2.593291926,LiMnSiO4
mp-10440,-0.73653817,Mg(P2Rh3)2
mp-756591,-3.70490489,Sm3NbO7
mp-21686,-1.94716533,Ba4UCr2S9
mp-984332,-2.479961657,Rb2Sr2(CO3)3
mp-1251,-0.373040475,VRh
mp-12535,-0.872901764,K2ZnTe2
mp-863427,-2.626367329,Li3Si2BiO7
mp-8609,-2.752252286,Li6UO6
mp-557213,-1.947694593,Te2Xe(OF5)2
mp-2832,-0.521064032,Cr2Se3
mp-1007975,0.11212226,CrNi3
mp-686239,-2.887566071,Sr5Li25La7Nb8O48
mp-21428,-0.182460338,Th2In
mp-570455,-0.563841026,CsNb6I11
mp-740717,-1.606496822,LiH4SNO4
mp-780628,-2.426176975,Na6Cr2B4PO16
mp-772090,-3.304423052,Li4Ti9O20
mp-560,-0.886879353,TmAu2
mp-33104,-2.0876113,Sm2O
mp-568437,-0.192991447,Yb2Zn17
mp-780283,-3.124835935,Li4V3OF11
mp-698134,-2.350891793,K2Na2Sb2H6O3F10
mp-997021,-1.005593161,AgPbO2
mp-772303,-2.336993047,Sb2(PO4)3
mp-12199,-1.820448692,Hg3(PO4)2
mp-5860,-1.359420445,K2HgO2
mp-768,-0.405385885,TmAl3
mp-567368,-0.46656424,Zr3(VGa2)2
mp-363,-0.339490319,NbGe2
mp-676058,-1.196857022,V3NiS6
mp-20645,-0.821881377,TbSiRu
mp-1424,-0.45976446,GePd
mp-976272,0.070390806,LiCa3
mp-9397,-0.857824949,HfTlCuSe3
mp-676500,-1.015565159,Cr9In7S24
mp-18179,-1.006335479,Cd4SiS6
mp-774697,-2.273260822,Li8NbO6
mp-686019,-3.638094509,Y2Ti2O7
mp-984100,0.260182354,PPb3
mp-768077,-2.300272498,Na2FePCO7
mp-6692,-3.012482101,Ba2PrSbO6
mp-774240,-2.400672956,Na3Li3Mn2P2(CO7)2
mp-21163,-0.512619419,SiPt3
mp-26157,-2.528847928,LiSb(PO3)4
mp-997042,-0.958101978,TlCuO2
mp-542644,-0.960134473,Zn2In2S5
mp-20339,-0.406994334,Ti2InNi2
mp-2059,-0.676117582,NbAs
mp-974740,-1.902722798,NdBiO3
mp-975159,-0.890260266,RbZnO3
mp-30620,-0.294551925,DyRh5
mp-754317,-2.876498235,NdO2
mp-651741,-0.703774676,Cs2Re2Se5
mp-20086,0.014179675,MnSn2
mp-3252,-1.900045957,SrTe3O8
mp-24091,-1.877125429,GaH4NF4
mp-29136,-0.623810292,Sr6Cu3N5
mp-638586,-0.225931917,Te3Pd13
mp-15686,-0.522487961,Li2CuAs
mp-864628,-0.700721887,Pm2SnPd
mp-34842,-2.743685464,Na3UO4
mp-24608,-2.9456884,K2AlH2OF5
mp-777517,-2.609780095,Ti3Cu2Ni(PO4)6
mp-675065,-3.984517702,Er4Zr3O12
mp-561569,-2.812019008,CsSb2F7
mp-305,-0.418347758,TiFe
mp-772114,-1.58715492,BaLaI5
mp-29355,-2.698008186,NaTeF5
mp-10928,-0.778719009,BaC2(SN)2
mp-1409,-0.483386321,TiNi3
mp-541928,-3.061713482,Sm3Re2O9
mp-567219,-1.139892143,Li4Ca3(SiN3)2
mp-1018057,-0.083225083,HfBe
mp-850961,-2.649527656,LiFe2OF5
mp-20942,-1.894279444,Ba2TlCuO5
mp-1007821,-0.102055533,GaCo2Ni
mp-1005955,-0.545324089,Tm3Ni7B2
mp-4264,-2.146608379,K2S2O5
mp-10523,-3.58628195,CeSiO4
mp-510403,-1.15971954,GdSb
mp-772864,-2.10919101,Rb2Ge2O5
mp-541113,-0.439171063,Cs3P7
mp-755877,-2.951183025,BaNdO3
mp-762930,-1.067567169,Li3(NiO2)5
mp-18439,-0.912211305,Ba3AlSb3
mp-7186,-0.606170415,NdAl3Ni2
mp-571468,-1.298532385,Ho3CuSiSe7
mp-768756,-2.62885825,Li2Bi(BO2)5
mp-5874,-0.21884948,TlAgTe
mp-566278,-2.188531571,WO3
mp-775127,-1.759415714,Li4Fe3O8
mp-585400,-2.543788745,LiFePO4
mp-768281,-3.057089474,Ho2Ge2O7
mp-19055,-2.780079107,HoCrO4
mp-6665,-1.064489179,Ba4LiW2N7
mp-3593,-2.683313453,Ta2Sn2O7
mp-983236,-0.156495216,Pm2ZnOs
mp-556161,-1.139512782,ZnS
mp-29736,-0.665135862,YAlGe
mp-864667,-0.564399802,NdTlAu2
mp-554003,-3.161140695,Sr4Li(BO3)3
mp-21393,-0.15668756,Ce3Al
mp-773512,-3.344048653,Tm2WO6
mp-29356,-3.155850789,NaTi2O4
mp-579544,-0.549516094,Ca6Cu2Sn7
mp-777588,-2.889426258,Li2FeF4
mp-769046,-2.588326441,Si2Sn2O7
mp-4499,-0.039630979,MgAlSi
mp-561473,-3.505148741,CaTaAlO5
mp-558465,-2.751915875,LaAg(PO3)4
mp-11278,-0.163767108,Ta2Be
mp-865360,-0.489839395,Tm2MgIr
mp-559071,-0.80085195,Ag2Bi2S3Cl2
mp-3916,-2.06652062,K2(SO2)3
mp-764983,-2.367196858,Li3VCr3O8
mp-781503,-2.840375967,VOF2
mp-7995,-3.238390505,Mg2BO3F
mp-574369,-0.340491538,La2InCu2
mp-29826,-0.258586207,ZnCN2
mp-10092,-0.361488749,KCu4Se3
mp-643770,-0.274245439,Rb2MgH4
mp-21613,-0.110090014,K5Pb24
mp-5354,-0.642829842,Er3(Si3Ru)4
mp-1018823,-0.658297917,NiPRh
mp-772722,-1.93660248,Na3CuBAsO7
mp-29638,-0.339014171,BiTePt
mp-556335,-2.84911121,YP5O14
mp-1018090,-0.409845265,CaGaSiH
mp-644281,-0.225989109,Mg7TiH16
mp-1478,-0.816063773,Cu4O3
mp-753982,-1.255766105,Li3CrS4
mp-569309,-1.805226639,RbMnCl3
mp-768960,-2.373882184,Li5BO4
mp-754883,-3.146037623,KHoO2
mp-978809,-0.763030095,SmAs2Au
mp-778355,-1.996473408,BaYBr5
mp-705019,-2.366565211,Cr(PO3)5
mp-3516,-2.721832514,UTeO5
mp-9160,-2.860977207,La4Au2O9
mp-869,-0.316890522,TaAl3
mp-631305,0.759839198,Ga2WSe
mp-555517,-1.618914272,ErCu3Se2ClO8
mp-755544,-2.708564167,YTlO2
mp-35152,-0.652381337,Sr2H5Rh
mp-19508,-3.190308548,SrCr(Si2O5)2
mp-570197,-0.207610793,Bi2Pd
mp-24217,-2.660261614,Sc2P3(HO3)3
mp-28745,-0.380532652,Nb2Te6I
mp-3858,-3.086707944,NaTaO3
mp-570753,-0.894053038,Tl3PbBr5
mp-675954,-0.323812859,Ga3Te3As
mp-17149,-2.964556429,Sr3ErRhO6
mp-973374,-0.034107488,LiMg2
mp-569406,-0.379027877,TmZn2
mp-14048,-3.367186889,Sr3Al2(SiO4)3
mp-24328,-1.598412931,RbHCO2
mp-570045,-1.347772999,Sm3CuSiSe7
mp-24229,-1.803981623,Na2CaH10C2O11
mp-631333,0.772477465,LiPdW2
mp-5610,-0.666263267,Ca(AsRu)2
mp-611316,-1.901961032,AsN(OF3)2
mp-23489,-1.18896381,CsIO4
mp-610955,-1.735334967,CsCrCl3
mp-30578,-0.187635523,DyCu5
mp-581263,-0.591890229,Sr13Al6Si8O
mp-754474,-1.170676363,USiS
mp-28158,-2.325021696,K4Be3O5
mp-12541,-0.401787663,Ca4Hg9
mp-568155,-0.178379354,U(AlC)3
mp-8422,-1.269899192,Sr(AlSe2)2
mp-698605,-1.753979417,CaGaBiB2O7
mp-755366,-1.85662508,LiCu2PO4
mp-560464,-2.097926298,UTl2(TeO4)2
mp-972607,0.020388811,SmHo3
mp-13090,-0.328856803,YMgAl
mp-22905,-2.107280452,LiCl
mp-30027,-1.716541005,RbCrCl3
mp-581639,-1.405170431,Mg2BN2Cl
mp-677325,-2.085784004,Ba8Tl2Bi2Pb4O17
mp-24749,-1.350939827,CdH6(CO3)2
mp-768785,-1.973564887,LiSn2(SO4)3
mp-30564,-0.35665783,ThCo
mp-542897,-2.014471875,BaIrO3
mp-989586,-0.567821105,SrTcN3
mp-861891,-0.036876053,SeBr2
mp-18309,-1.940255229,Ba2CdS3
mp-31374,-1.480761645,H30S2O21
mp-757327,-2.754299595,Li7Ti2P7O24
mp-770,-0.317319952,DyCd
mp-650112,-1.802533599,Fe3O4
mp-30666,-0.572220965,Sc3Ga2
mp-980385,0.016934601,Tb3Er
mp-677734,-1.741666434,K4PH5Se3O16
mp-631528,1.131729828,ZnBSe2
mp-20474,-0.735302433,MnCu2GeS4
mp-685928,-1.200642016,Rb5Tc3S7
mp-775631,-1.68566889,Li4Fe3Cu3(SnO8)2
mp-669456,-0.502422101,La2Al3Ge4
mp-867918,-0.448655579,ErPaRu2
mp-17862,-0.031432368,Ag3Ge5P6
mp-771393,-2.171429627,Na3FeBAsO7
mp-555129,-2.394710748,La3S3N
mp-3567,-0.853379888,NaVSe2
mp-17183,-2.825929216,Na2BeSiO4
mp-20074,-0.452672482,SrIn2
mp-781740,-2.409905272,Li2V3CrO8
mp-541249,-0.663015317,LaSiAs3
mp-10093,-3.192962364,Sr2YbNbO6
mp-14390,-2.614996822,Na3GaP8O23
mp-20784,-1.447408881,Ta3PbS6
mp-27902,-0.31225267,BiSe
mp-29401,-1.58882982,Er5C2Br9
mp-714969,-1.920188819,MoO2
mp-561194,-2.709883302,La10S14O
mp-770962,-2.550998248,VFe(PO4)2
mp-4426,-1.966267033,Li4SeO5
mp-24123,-0.447560893,Rb(BH)6
mp-772669,-2.232652838,FeCo(PO4)2
mp-22687,-0.343731169,BaIn4
mp-755217,-1.802441747,Cs2BaO2
mp-850227,-2.43846283,LiCrPO5
mp-780480,-2.997585926,Li11V6O5F19
mp-703275,-3.506760484,NaSr3NdTi5O15
mp-996953,-1.029664292,CuHO2
mp-777676,-3.003822706,LiVF3
mp-3200,-3.803437843,Lu2Ti2O7
mp-769517,-2.177444804,NaMnPCO7
mp-569989,-0.459827065,Nb2C
mp-9216,-2.335577534,Ca3Tl2O6
mp-569831,-0.409776575,Zr3(Al2C3)2
mp-554184,-2.964886892,Ho2Cu(BO2)8
mp-7435,-0.682375066,KCuSe
mp-864670,-0.336528034,Ta2VOs
mp-675488,-0.913065254,Li6I3N
mp-867974,-2.551108489,Ca2Al2Si6SnO22
mp-645159,-1.745672756,FeBiO3
mp-542765,-2.00789226,EuDyCuS3
mp-862795,-0.324086121,CaLaAg2
mp-28593,-1.834839604,Li3BrO
mp-769673,-2.564426428,Tb2Bi2O7
mp-768333,-3.914475172,DyYO3
mp-861911,-1.018029472,Sb2S2O
mp-504573,-1.939618572,Cr2CuO4
mp-3702,-0.180910165,FeCuPt2
mp-775748,-2.153956052,Li4Cr3Fe2Sn3O16
mp-9173,-3.464177634,TiO2
mp-23885,-1.586759967,SrH12(ClO3)2
mp-639690,-1.830073835,PuS2
mp-28766,-1.696591601,K2TiS3
mp-568252,-1.386880954,Rb2Hg2PdCl8
mp-769393,-2.545266287,DySeO3
mp-561350,-1.590697521,AlBiSCl4
mp-4175,-0.189139529,ZnSnP2
mp-22477,-0.73648724,Ta2P
mp-32527,-2.536230991,V(PO3)4
mp-567957,-0.363653422,Sm4MgRh
mp-849285,-1.857372709,Na8NbO6
mp-627401,-0.583683233,CdI2
mp-7080,-0.474943497,Li5(NiN)3
mp-14172,-0.362776873,SrSi2
mp-759263,-2.441603877,Li3Bi3(PO4)4
mp-639714,-1.840229803,TlVTeO5
mp-568985,-0.847267988,La2B3Br
mp-610744,-0.775594099,Cs2MnTe2
mp-763464,-3.531132147,Zr4MnO9
mp-574909,-1.228631785,K2NbS7
mp-568974,-0.315987457,Ca(CuSn)2
mp-569724,-0.570073839,ErAgSn
mp-626481,-2.069968314,Al(HO)3
mp-864946,-0.22324202,MnCuPd2
mp-22666,-1.567229773,NdCu3(RuO3)4
mp-582295,-0.620134492,La(FeP3)4
mp-673624,-2.463574435,MgNb2(PbO3)3
mp-786,-0.030588962,MnSb
mp-974774,1.272277652,Rb3Tc
mp-753384,-2.373627424,Nb4Tl4O13
mp-30774,-0.277243549,MgNi2Sn
mp-19066,-2.126576595,W3O8
mp-13416,-0.520952347,Sc2InNi2
mp-705604,-1.511110623,BaLaFe2Cu2O11
mp-540872,-1.442839558,AgSbO3
mp-864639,-0.311377461,Ta2NbOs
mp-978280,-0.06294794,Mg3Ga
mp-14763,-1.031269771,Ca3MnN3
mp-768573,-3.951068924,Lu3AlO6
mp-850924,-1.980942795,K8Li9Cr4O16
mp-16334,-0.205225858,Fe3PdN
mp-19963,-0.26501029,TiFe2Sn
mp-14322,-3.644485625,Ba3Tm4O9
mp-9370,-2.160450387,RbLuS2
mp-10183,-0.626046973,MgSbPd
mp-770618,-2.381786792,MgMnO3
mp-679989,-1.335218479,Bi(Mo2Cl5)3
mp-555857,-1.766397556,BaVS3
mp-773603,-2.48592257,Na3V(BO3)2
mp-768516,-2.41011805,Ti2(SO4)3
mp-504741,-0.659819136,Hf(FeSi)2
mp-20479,-0.305169695,SrIn4Ni
mp-572597,-0.708745147,SbPS4
mp-973908,-0.01768555,PaFe3
mp-675835,-3.783299505,Dy2Zr8O19
mp-556539,-1.937542459,BaSb2Xe5F22
mp-604378,-0.574192792,Tb4InIr
mp-19171,-2.504949594,Y(FeO2)2
mp-978291,0.353621982,Mg3Pa
mp-29603,-1.00693,Rb2ZrTe3
mp-707327,-1.237704531,Na4Sn2H26Se6O13
mp-558370,-2.686012245,Ca3TiBe2Si2(As3O10)2
mp-567822,-0.292246683,Sr3In11
mp-30825,-0.89513337,PaRh3
mp-7144,-0.256786613,Sm3AlC
mp-765191,-1.939308305,LiAgF4
mp-23392,-2.053216801,K4CdCl6
mp-556226,-2.803075512,NaB3O5
mp-33406,-1.602561403,La2PbSe4
mp-780808,-2.278441343,Li2V3TeO8
mp-4784,-2.008890376,CaPtO3
mp-574458,-0.349262195,Zr21Re25
mp-1011834,-2.483124457,Na2CoP2O7
mp-977437,-0.312448836,HoZrOs2
mp-667286,-0.325056206,Re6Te7Se8
mp-975333,-1.670238166,LiCaO3
mp-4497,-1.935199781,Si2N2O
mp-24585,-2.191414274,LiZnPH2O5
mp-684745,-3.274888071,CsTiNb(O2F)2
mp-4998,-2.378628877,Sr2IrO4
mp-23690,-2.080265303,CaH4SO6
mp-6527,-3.033312836,Na3Li3In2F12
mp-570706,-0.744366317,CsTiCu3Se4
mp-777451,-2.941125242,Li2FeF4
mp-976583,0.804309823,K3Co
mp-553926,-2.797698294,NaLiB4O7
mp-23391,-0.560152039,Tl4CrI6
mp-3464,-0.364313366,FeSiRu2
mp-766196,-2.497282314,LiSiBiO4
mp-976292,0.399611298,NaCu
mp-973232,0.028264358,NdTm3
mp-443,-0.712863472,CaAu2
mp-7752,-1.001315188,Sr3SbN
mp-23450,-1.182930649,RbIO4
mp-5368,-3.035838012,Li2GeF6
mp-4930,-3.461945458,TiAl2O5
mp-746690,-1.823942022,FeP3(H2O3)3
mp-867199,-0.207778561,Pm3Tl
mp-570652,-0.703343953,Hg6BiAs4Cl7
mp-771359,-0.847013081,Cu2O3
mp-1845,-0.106680079,CaBe13
mp-962063,-0.101167776,LaMgTl
mp-772240,-1.994174472,Li2MnH4(SO5)2
mp-769310,-2.218980295,SiBi2O5
mp-170,-0.31786461,HoCd
mp-37737,-2.942768917,HfTiF6
mp-777843,-0.744157859,Ge2N2O
mp-1967,-0.362954738,TaTe2
mp-569783,-0.107266443,ErFe3
mp-697072,-0.961487896,CuHIO4
mp-707060,-2.074227877,NbCl4F
mp-18766,-1.935335489,Si(NiO2)2
mp-862723,-0.174098361,ScTc2Mo
mp-764903,-2.044523573,Li6FeO5F
mp-3775,-3.390298826,Na2SiF6
mp-5145,-0.098865377,Ag3AsSe3
mp-10281,-1.138914988,ZnS
mp-10868,-1.251573123,SmPPd
mp-5560,-2.109564813,Cd3(BO3)2
mp-542377,-0.168369328,Na9Sn4
mp-5056,-0.961630648,Mn2SiS4
mp-977059,-0.33490896,MgPd5
mp-675562,-3.924844751,K2ThF6
mp-557673,-2.885818115,RbBe2P3O10
mp-757505,-2.765943944,LiNbPO5
mp-29190,-0.255202745,Te4MoBr
mp-774907,-1.390263008,KLiZnS2
mp-20882,-3.408889447,CeBO3
mp-757504,-3.58070472,ZrTi2O6
mp-767771,-2.438281031,P3W2O13
mp-34371,-0.464146744,AgSbS2
mp-27808,-1.455201018,Te6Cl2O11
mp-12305,-0.373691075,Sc11Os4
mp-25214,-2.629201457,NbO2
mp-758880,-2.165993031,LiCuPO4
mp-10189,-0.825899792,LiTiTe2
mp-867346,-0.242806191,ThCdHg2
mp-763428,-1.842883262,Li3Fe3CoO8
mp-23539,-1.625798114,KSn2Cl5
mp-777801,-2.874585894,LiFeF4
mp-557728,-0.641782153,KCu4AsS4
mp-15781,-2.250863013,KLaS2
mp-631358,1.131264588,SrTa2Mn
mp-769016,-0.6513496,Pb(BrO3)2
mp-28898,-0.927568768,BaCN2
mp-27472,-3.002290062,NbSbF10
mp-754876,-2.806189689,SmAsO4
mp-768296,-2.763573922,Ti3Bi2(PO4)6
mp-19084,-2.883694533,BaMg2V2O8
mp-555297,-1.48396667,HoH16C2S2NO12
mp-720334,-1.792602605,Na2P2H14O13
mp-21599,-3.291128079,Eu2Si2O7
mp-715474,-1.968674387,MoO3
mp-13467,-0.783091388,Ce(GePd)2
mp-769506,-2.29696092,Na2FePCO7
mp-13033,-0.87333905,MgTe