id,formation_energy_per_atom,pretty_formula
mp-9400,-0.480552855,CeAlSi2
mp-985293,-2.115132805,Al(HO)3
mp-776965,-2.494163867,Na3Sb(PO4)2
mp-769002,-1.854978961,Li2BiO3
mp-5468,-3.347217731,Na3AlF6
mp-999550,0.059796385,Mn3Ga
mp-27307,-3.64764007,Na2ZrF6
mp-4346,-2.166503543,SrRuO3
mp-4126,-3.350201854,KUO3
mp-756216,-2.094864528,EuSeO4
mp-978555,-0.459514957,Sm2CdIr
mp-976588,0.042893749,HoTh3
mp-771877,-0.948484345,Ca3Pb3I14
mp-771250,-2.282769545,Na3SiSnCO7
mp-124,0.002442953,Ag
mp-21170,-0.190180037,KPb2
mp-643759,-1.840896953,GaH3NF3
mp-578931,-1.036538369,Cu2SeO4
mp-771063,-2.48827913,Li4Fe3Ni(PO4)4
mp-10463,-0.290606026,YCo4B
mp-764896,-2.395388639,Li7Fe8(BO3)8
mp-771166,-1.945981822,Na2SbAsCO7
mp-764949,-2.775846824,MnF3
mp-867263,-0.261691922,ScCdHg2
mp-22737,-0.708100564,Sb8(PbS5)3
mp-29896,-0.502678205,Y2B3C2
mp-19330,-2.714932532,CaMoO4
mp-11034,-0.517980227,PrAl7Au3
mp-22536,-1.856804883,U3S5
mp-975404,0.227167621,RbCa3
mp-720847,-1.144788419,BH2NCl2
mp-606644,-0.04400782,CuP10
mp-11769,-0.719669698,CoCu2SiS4
mp-561237,-3.028986182,LiCaBO3
mp-28250,-1.235152771,Li2MnBr4
mp-569727,-0.302769493,BiPd
mp-757176,-4.300385097,BaYF5
mp-753444,-1.213348562,Li3BiS3
mp-1020018,-2.337291294,Li5B(SO4)4
mp-20098,-2.387077205,Ba2PbO4
mp-505187,-1.530223676,K6Pb2O5
mp-626819,-1.709472814,ReH3O5
mp-12434,-0.687832441,Ho2InGe2
mp-19725,-0.232820353,Hf(FeGe)6
mp-604315,-0.123959825,Zn(BH4)2
mp-554302,-2.941781527,Cs2NaMnF6
mp-17315,-3.633942643,Zr3Tl2OF12
mp-24084,-0.264969703,KH
mp-561352,-3.239032627,BaNa2Ti2(Si2O7)2
mp-722502,-0.511077469,Li3P11(H3N)17
mp-864942,-0.372022158,Mg3TcH7
mp-631534,2.050031023,NaSrRe2
mp-557746,-1.525527389,Zn2SeCl2O3
mp-863723,-0.764909924,Ho2MgGe2
mp-4100,-2.751410179,Ca4IrO6
mp-768358,-2.929471935,ScInO3
mp-4770,-2.319598025,Na2SO4
mp-554722,-3.580766537,Y3GaO6
mp-510637,-2.516546442,EuSbO4
mp-560173,-3.206678693,KAlSiO4
mp-771342,-3.140514817,Gd2P4O13
mp-607725,-0.870699023,Ce(PPt2)2
mp-755426,-3.128529914,NdSmO2
mp-23089,-2.863431868,SrTa2Bi2O9
mp-768734,-1.626208245,Sr2CaI6
mp-19856,-0.584652565,SnPt
mp-557040,-3.054109973,Lu(PO3)3
mp-554363,-3.508360945,Pr2Ti3(ClO4)2
mp-979009,0.291818848,Th3Be
mp-21159,-0.45018604,DyGe3
mp-754307,-3.013833865,BaNdO3
mp-557272,-1.001650622,AlS2(NCl2)2
mp-36536,-2.051144739,NaCeS2
mp-862733,-0.444218831,Pm2ZnSi
mp-555356,-2.856324471,Ba13Dy8Zn4Pt4O37
mp-757911,-3.411196004,MgAl10O16
mp-17404,-3.676667891,Y2Si2O7
mp-760226,-2.900981225,Nb3O2F5
mp-1019253,-1.600854205,SmSe2
mp-772710,-2.829014521,Li2TiNb3O8
mp-679928,-1.574510971,Rb3Pr2(NO3)9
mp-19824,-0.336202587,Ca(MnGe)2
mp-571434,-0.923902182,La(AsPd)2
mp-622203,-3.37176003,BaMnGaF7