id,band_gap,pretty_formula
mp-781611,1.4818,Li4Fe2C4SO16
mp-15275,2.2347,NaGdTiO4
mp-18767,1.0628,LiMnO2
mp-850922,1.8551,Li3Fe2(SiO4)2
mp-942700,4.1699,LiNiSO4F
mp-18079,1.107,BaLaCuS3
mp-760425,2.7126,Tb2Zr2O7
mp-35512,1.7422,Dy5AgS8
mp-757840,1.5953,Ba4(PtO3)3
mp-555012,1.2615,La6S4N3Cl
mp-627944,5.1713,Si4H2O9
mp-775628,3.121,Li5La3(SbO6)2
mp-866649,4.88,NaSc(BH4)4
mp-851109,2.8756,Sr9La5Br33
mp-8725,1.2146,HfSnS3
mp-780441,1.012,Li24Mn7Cr5O36
mp-546621,1.3527,ErBi2BrO4
mp-28837,1.7025,K3RhCl6
mp-555186,2.1985,Li2ZnSnS4
mp-868572,1.5917,Li6TiFe5O12
mp-696940,2.8133,TiH12C2(NF)6
mp-556475,0.492,KLaPdO3
mp-6273,1.5181,Ba4Na(SbO4)3
mp-972384,2.1822,V2Se2O11
mp-770642,1.677,Li2MnSO4F3
mp-28278,1.6129,Na2GeSe3
mp-759377,2.5656,LiTi2(PO4)3
mp-9467,5.1509,NaCa9Mg(PO4)7
mp-568761,0.2416,AgTe
mp-720382,5.255,H12Cl2O13
mp-780115,2.1352,Li7Cr3Co(PO4)6
mp-707406,3.47,Rb6Te3P6(H13O20)2
mp-770773,4.9852,Rb2S2O7
mp-3756,4.0409,SmTaO4
mp-30062,1.4568,Cs2PtBr6
mp-774430,4.597,Li2MnF4
mp-752459,3.0149,Gd5Y3O12
mp-22186,1.3352,In6Ge2PtO9
mp-510347,1.1221,In5S5Br
mp-15687,0.2021,KZnAs
mp-568864,0.4415,RbCrCl3
mp-735822,1.6799,Fe3Pb8F24
mp-18729,1.5716,V2Co(PO5)2
mp-8198,1.5324,Rb3Cu5O4
mp-23902,5.9151,PH3O4
mp-557123,0.758,Na2CuSi3O8
mp-605437,1.9685,FeHO2
mp-37436,3.4428,Li7SbO6
mp-696085,4.9444,Zn2P2H12O11
mp-7113,0.5552,CrAuS2
mp-20015,2.1543,As2PbO6
mp-24468,5.0727,H8S(NO2)2
mp-647727,2.0294,Re2N2ClF9
mp-3281,4.9361,Al5BO9
mp-27422,2.7263,CsBiF6
mp-759862,3.742,SrCd2H16(Cl3O4)2
mp-3594,2.9682,Gd3GaO6
mp-721618,5.2619,SrB6(H4O7)2
mp-8602,5.5299,SiO2
mp-6058,6.7576,K2NaScF6
mp-766929,2.2195,Sn4P2O9
mp-559383,5.0944,RbLuP2O7
mp-773511,1.1467,Co5NiO12
mp-756718,2.6452,Li4Bi2O5
mp-556118,2.1683,BaHgO2
mp-8714,1.1074,Rb2MnS2
mp-22271,0.43,Cu(AsO2)2
mp-557645,5.1607,K5NaS4(ClO6)2
mp-744832,2.8195,V3HPb5O13
mp-769294,1.0711,Rb8SnO6
mp-648140,2.5929,Na2Al2S3(Cl4O3)2
mp-669359,0.4399,KNd3Te8
mp-556156,1.9059,LiUBO5
mp-989636,1.0637,BaWN3
mp-697085,5.2968,H2O
mp-557784,3.2961,LaNbTeO6
mp-755417,4.1698,Ba3(BO3)2
mp-555414,0.3109,Ba3Sb4O
mp-585964,1.8175,SbS3N2Cl7
mp-667345,2.9007,NbTl2PO6
mp-699370,1.3073,Nb2CoO6
mp-30158,2.8817,Sr3Ga4O9
mp-23048,1.2909,CsMnBr3
mp-37473,1.8523,TiOF2
mp-626182,1.0708,SbHO3
mp-6008,4.9927,Ca3Al2(SiO4)3
mp-1019789,5.2623,K3B(SO4)3
mp-684265,4.3459,Mg2Al4Si5O18
mp-18855,2.4778,Co2Te3O8
mp-3654,6.3974,RbCaF3
mp-19501,0.4445,Ba6Na2V2Ru2O17
mp-695694,0.9842,KH18OsN6(ClO2)4
mp-22865,4.9881,CsCl
mp-753845,0.2533,LiCuO2
mp-19350,0.998,LaVO3
mp-23860,4.0576,SrHCl
mp-560601,0.5874,K2CuS(ClO2)2
mp-771106,5.7388,Dy(PO3)3
mp-30990,3.5056,K6Si2O7
mp-694996,2.2608,RbNiW(OF)3
mp-674477,3.7218,MgZr4O9
mp-641924,1.1131,Bi2PbS4
mp-755128,1.7686,SmTlO2
mp-532768,3.9082,YZr5Si5PO24
mp-567601,1.2192,Sr4CN4
mp-622199,1.2294,KCuP2Se5
mp-555777,1.1264,ZnGa3N3O
mp-24241,4.6204,Rb3B12H12I
mp-555979,3.6557,Li2Pr(NO3)5
mp-14433,2.3241,NaGe2N3
mp-753152,1.6143,LiCuCO3
mp-557343,3.174,Zn3BPO7
mp-556866,1.2212,Ag2HgSI2
mp-31213,1.7964,Sr4Ti3O10
mp-8204,1.2932,LiAlB14
mp-867975,5.0467,CsB2H5O6
mp-779784,2.8636,Li6MnFe5(BO3)6
mp-22987,1.4833,BiIO
mp-510279,3.2302,ZnAsHPbO5
mp-9511,1.0008,K2AsAuS4
mp-752408,3.4431,BaSrI4
mp-774910,1.2182,LiSb(TeO4)3
mp-704240,0.3527,CoPO4
mp-867371,0.716,K2Y4Cu4Se9
mp-556062,2.4915,NaNb4Tl3P2O17
mp-775944,1.4582,Ba2Ti6N2O11
mp-771889,4.1001,Sr5La2Cl16
mp-556712,2.5423,Ga2BiS4
mp-30213,2.9704,Sb2BrF15
mp-6236,4.564,Na2BeSiO4
mp-556926,0.7371,CuAs2S4(O2F3)4
mp-10163,1.2847,NaAlTe2
mp-768871,1.2033,Bi6B10O21
mp-703684,3.4053,MnH12N2(Cl2O)2
mp-32528,2.0374,Li3V3(PO4)4
mp-583762,0.918,Na3W3Cl13
mp-643002,3.3512,Mg2H6Os
mp-5036,2.1502,ErPS4
mp-29205,5.1672,YBO3
mp-560681,5.3865,NdP5O14
mp-557510,0.8224,Cu3TeS3Cl
mp-690517,2.1989,La2NiO4
mp-13897,0.8024,K3UF7
mp-8936,0.8549,SnSe
mp-768638,3.1583,Dy3Sb5O12
mp-620058,2.2879,PbN6
mp-505734,3.4146,Cs2SiO3
mp-754777,3.9295,NaLaO2
mp-690551,1.8366,Li4Mo3O8
mp-567129,3.6777,KLaSi(CN2)4
mp-866617,4.6128,Cs2Sr2(CO3)3
mp-775207,2.736,Li4CrP6(H4O11)2
mp-557787,2.4363,TlSbO3
mp-764933,0.4372,Li10Mn2Fe3Ni3O16
mp-556048,1.5314,Nb2O5
mp-14401,4.9153,NaCaPO4
mp-555587,2.2201,K2SmP2S7
mp-554682,5.7065,SiO2
mp-674999,2.2255,La2Zr2O7
mp-9672,0.631,K2NiP2
mp-674842,2.8607,Er2Zr2O7
mp-31356,2.2317,Sr3MoN4
mp-554033,4.5318,Na6Si8O19
mp-1017000,0.643,MgZrO3
mp-18778,3.607,Zr(WO4)2
mp-782644,0.422,LiMn3(BO3)3
mp-754150,3.8351,La3GaO6
mp-18896,0.5151,V6O13
mp-755751,6.9081,BaYF5
mp-554288,5.2287,NaPH4O5
mp-35712,2.4178,Mg(GaO2)2
mp-643101,4.0866,Rb2H6Pt
mp-1020115,4.5433,MgSiO3
mp-674537,1.7707,Ba2Bi6O11
mp-30241,3.8709,Mg5(HO3)2
mp-8891,3.3991,K2Zr(BO3)2
mp-684052,2.5959,LiSn6P7O24
mp-753164,3.5568,YbTiO3
mp-779517,3.667,Sr3Hf2O7
mp-581361,3.9241,Ba3La2C5O15F2
mp-14399,4.8483,LiAlSiO4
mp-720104,2.7976,Na4Al3Ge3NO14
mp-697127,2.1597,K3HPdS2(ClO3)2
mp-27755,5.2861,KAlCl4
mp-546266,1.3668,DyBi2IO4
mp-18511,7.6692,NdF3
mp-13799,6.2541,K2NaYF6
mp-974482,3.268,K4Hf5O12
mp-558930,4.7071,Zn(PO3)2
mp-765834,1.7513,Li6V2OF11
mp-680836,0.3817,Ta4Te9I4O
mp-558276,3.4458,K2Er(NO3)5
mp-561328,2.5985,SbSe(BrF2)3
mp-769038,2.149,Li3NbS4
mp-29354,0.7461,Ba3(TaS4)2
mp-554390,3.7236,SrAl2SiN2O3
mp-19037,2.4572,K2W2O7
mp-7801,2.6618,CaGeN2
mp-776314,1.6107,Zr2N2O
mp-620033,0.4388,BaCu(SeO3)2
mp-582618,0.9363,Eu2C(NCl)2
mp-707876,5.1824,Ca3Be2P4(HO2)10
mp-763805,1.0245,Na7(WO3)9
mp-16780,2.0731,KBaNbS4
mp-541509,0.3349,Ta2Ni3Se8
mp-36915,1.3129,K6Fe2O5
mp-5974,4.6519,La2Si2O7
mp-779895,2.6179,LiCr(PO3)3
mp-14328,4.5706,Pr3GePO9
mp-568011,0.9437,K3P5RuSe10
mp-680339,0.8013,Mn4Si7
mp-14558,4.6983,Ba2Mg(PO4)2
mp-30273,4.4477,AcClO
mp-744954,3.3208,NiH12(NO6)2
mp-4825,2.84,Li7VN4
mp-781609,1.8604,Ho3Fe5O12
mp-31115,3.537,Er3GaO6
mp-15312,3.1458,Ca4Al6TeO12
mp-552008,1.3895,DyBi2ClO4
mp-30107,0.4473,RbNb4Cl11
mp-583615,0.5947,K3In2As3
mp-571575,0.6061,Pr5(CBr4)2
mp-30991,3.542,Ba(IO3)2
mp-40143,4.8766,Cs2KZrOF5
mp-13997,6.8327,RbAlF4
mp-686747,1.798,K2Nb6Ag(PO8)3
mp-765119,0.9167,Li8Mn3CrO12
mp-6054,3.3519,Ba5Tm8Zn4O21
mp-690542,3.0426,Li4WO5
mp-14406,1.3442,Ba2Re6S11
mp-559136,3.5328,CaH8(NO5)2
mp-762454,1.7748,LiCrO2
mp-38162,1.0113,Sm5CuSe8
mp-560348,1.5193,K6Nb4S25
mp-780190,2.362,Li2Cr3(NiO6)2
mp-640883,2.678,VBi(PbO3)2
mp-28710,2.1848,BaGe2S5
mp-12271,4.0046,MgSeO3
mp-24026,4.1893,Si3H9N
mp-998778,2.3054,RbSnBr3
mp-675293,2.1278,Yb(YS2)2
mp-683955,1.7349,KTaPS6
mp-774228,2.5889,Co(IO3)2
mp-555786,2.517,Si(PbO2)2
mp-696497,5.1766,Mg3Si4(HO6)2
mp-18460,4.3731,K2Si6GeO15
mp-672,1.1162,CdS
mp-696845,4.8687,MgH12(ClO3)2
mp-31060,3.1228,Rb4(BS)9
mp-767395,0.429,Li3CuSbO5
mp-29063,5.6768,ThZrF8
mp-768866,0.3553,Sm2Cu2O5
mp-5121,3.2903,Nd2Te4O11
mp-14648,3.854,NaZnPO4
mp-721712,3.9944,NaH4CSNO2
mp-554820,2.0206,ZnS
mp-31355,0.7724,Sr3Tl2O6
mp-7726,1.8996,Rb2UO4
mp-2234,1.4611,Er2S3
mp-765709,1.469,Li5Ti2Fe3O10
mp-777312,0.2645,Li4Sn2P4H3O16
mp-6138,2.9882,Na2TiSiO5
mp-7449,0.747,Cs2Se3
mp-560832,5.2175,CaH2CO4
mp-554149,3.7207,BaNaFe2F9
mp-556487,3.8964,K2NaMoF6
mp-14591,1.196,LiSbS2
mp-775339,1.7923,Li2V(Si2O5)3
mp-998413,1.205,CsSeBr3
mp-558658,3.9408,Y2C(NO)2
mp-18750,0.999,Mn(FeO2)2
mp-759667,3.2075,Li2Sn(BO3)2
mp-760635,3.0095,Yb4Br6O
mp-561523,2.1768,NbTlCl4O
mp-542100,3.7931,K4Nb2Si8O23
mp-13748,5.6338,Cs3SiF7
mp-777749,1.9218,Y2Sb2O7
mp-29829,1.5574,LiAuS
mp-759720,0.4083,LiCuO2
mp-560941,5.7712,SiO2
mp-16988,0.3984,SrCu2SnS4
mp-777924,2.9391,Li2Fe3F8
mp-7691,0.2031,YB4Mo
mp-13599,3.7838,NaSn2F5
mp-540998,1.0595,FeTeBr7
mp-771158,3.9861,Ba2B2O5
mp-6960,0.9623,Rb2SiAs2
mp-558238,6.9046,KEr2F7
mp-683966,3.9035,GaP3(NCl3)3
mp-756132,0.2979,Cu(SbO2)2
mp-557367,3.513,K2CaAs2O7
mp-28381,2.1175,Cs3InO3
mp-555098,3.8642,SrSeO3
mp-752692,1.5542,K2SnO2
mp-1013898,1.1762,LiMo3P3O13
mp-690978,1.7633,La5Ti6S3(ClO5)3
mp-540675,3.0391,SeCl4
mp-757883,2.949,LiSiBiO4
mp-13538,2.1724,KPrSiSe4
mp-6824,4.577,Na2ZrSi4O11
mp-26871,2.7626,Li2Sn3(P2O7)2
mp-643655,5.1556,LiAl2H6ClO6
mp-571371,3.9175,CsK2BiCl6
mp-722787,0.4534,K4P4H7(RuO9)2
mp-757483,5.0232,Y6O5F8
mp-772242,3.142,LiVPO5
mp-862871,3.1016,PbCl2
mp-779031,2.0442,NaV(PO4)2
mp-781865,0.7475,Ca5BC4Cl3
mp-31068,3.1994,P2Pb4O9
mp-19141,1.0832,K6Co2O7
mp-555942,4.0849,Er3SiSe2O10F
mp-648211,3.6005,PNCl2
mp-10792,5.0107,DyBO3
mp-703673,0.3638,YbVO3
mp-558203,5.8698,SiO2
mp-7084,0.4237,SrCaSi
mp-777678,4.0901,LiFeF4
mp-18529,2.2738,Tm2S3
mp-768732,3.0892,Ba6SrI14
mp-626074,4.6169,Al(HO)3
mp-6265,3.5073,Ba2TbSbO6
mp-850743,3.1002,Li8MnFe7(BO3)8
mp-757127,3.0697,LiSi3BiO8
mp-754787,0.8895,SmTlO3
mp-558516,4.3399,TmSeClO3
mp-29678,0.5066,AgBiS2
mp-557399,3.9011,KSnSO4F
mp-684454,0.3196,Li3Bi3P8O29
mp-722891,1.0626,Na2Ni(H7N3)2
mp-776081,1.7472,K2O
mp-753746,0.4581,Rb2O
mp-559832,1.6082,Hg3(SBr)2
mp-607454,2.569,AlC3(NCl2)3
mp-773601,1.6307,Li2CuP3H8O13
mp-23736,4.043,LiMgH3
mp-8547,0.7737,PdPtF6
mp-570300,1.9325,MnTlCl3
mp-7664,1.5336,Na6ZnO4
mp-32465,1.9243,LiV(PO4)2
mp-706543,4.7949,BaP2(HO2)4
mp-16930,1.2201,Na3GeTe3
mp-29904,1.9725,SbXe2F9
mp-997585,3.458,La8Al7GaO24
mp-867328,2.7932,KYSiS4
mp-549706,3.2871,MgO
mp-4163,2.5248,Ca3Ti2O7
mp-540977,2.4537,Bi5IO7
mp-704944,1.5833,VAg2O3F
mp-23363,5.1567,NaAlCl4
mp-4841,1.2325,LaCuS2
mp-849419,0.4189,Fe10O9F11
mp-1806,0.868,RbO3
mp-568556,2.6298,Mg2B24C
mp-18481,1.2355,K6MnSe4
mp-4419,1.5604,NaNbO3
mp-561236,1.8938,Pb13(Cl3O5)2
mp-19490,3.4701,PrTl(MoO4)2
mp-652621,2.0735,In5Br7
mp-559710,2.3178,NaInAs2O7
mp-769597,2.4709,Li2CoGe3O8
mp-554081,5.3708,Ca2PClO4
mp-630641,1.1473,Sr2FeClO3
mp-463,5.9956,KF
mp-541073,2.4541,SmSI
mp-24006,4.9018,MgH12(BrO6)2
mp-7214,1.5373,Sr3CrN4
mp-565447,2.4803,ThV4O12
mp-17562,4.6271,Sr3Sc(BO3)3
mp-772938,3.4711,Li2Ta4O11
mp-7384,7.7298,SmF3
mp-17799,4.1322,KCdC3(NO)3
mp-1005754,5.5735,SmHSO5
mp-758196,3.0527,Mg3(AsO4)2
mp-7173,0.647,ScSbPt
mp-675458,1.292,La2Te4Pb
mp-764791,3.4467,Li2Mn(SiO3)2
mp-752851,5.737,Ca2SiB2O7
mp-557994,5.2831,Ba3Sc(BO2)9
mp-3519,2.4308,ZrSO
mp-557985,4.9935,KPO3
mp-629430,0.9503,SrLi2CrN3
mp-504838,1.91,CsPS3
mp-14155,5.4553,HoP5O14
mp-558966,2.1162,Ca5(ReO6)2
mp-28421,2.0398,Cs2HgI4
mp-38035,4.6636,SrCO3
mp-510458,3.5886,HCN
mp-27546,5.6712,CaClF
mp-5304,3.4918,LaAlO3
mp-541190,3.9983,Cs2LiVO4
mp-22950,0.8211,CsNiCl3
mp-8961,3.4197,Ba3NaTaO6
mp-779355,4.3606,Li3MnF5
mp-23436,3.8959,Cs4PbBr6
mp-757038,3.6453,LiSiBiO4
mp-850948,0.2777,LiMnCr2O6
mp-27247,3.7603,Na3NbO4
mp-3167,0.428,Hg2GeSe4
mp-765498,2.4165,LiVOF3
mp-14469,3.039,KHg(PO3)3
mp-548658,4.5235,RbPO3
mp-20507,3.6391,PbSO3
mp-32113,1.1505,Mo2P3O13
mp-505603,2.4485,Pb5SO8
mp-9723,2.0894,Sr4Li(BN2)3
mp-772217,1.9574,ErInO3
mp-14565,3.9959,K3P6N11
mp-160,1.4336,B
mp-13926,6.4704,Rb2NaYF6
mp-27702,2.3666,InClO
mp-38805,1.4815,Sm5AgSe8
mp-504650,1.7778,La3CuSiS7
mp-3395,3.7052,SrSeO3
mp-571418,4.4851,RbYbBr3
mp-8258,3.1636,BaAl4S7
mp-532680,1.7026,Ba6CdAg2(SnS4)4
mp-18780,4.3877,K2WO4
mp-18827,3.039,AlVO4
mp-554263,4.5774,Ca2BClO3
mp-17774,3.4186,K2Li3GaO4
mp-24375,2.4129,TlH4NCl4
mp-776108,2.7433,LiNbO3
mp-20042,0.522,TlInS2
mp-27208,4.7503,RbMgCl3
mp-567259,2.3991,CdI2
mp-775805,1.9396,Zr2N2O
mp-770624,2.9606,Li2CoPO4F
mp-774404,2.1465,LiVP3HO10
mp-704959,0.6247,CrP2O7
mp-768190,5.3901,Li3MgPCO7
mp-772981,2.5146,Li2Zn3(Ge3O8)2
mp-10971,4.1714,LiErO2
mp-554289,0.5949,AsS3(NF3)2
mp-557583,2.992,TlInAs2O7
mp-3996,3.0695,GaAsO4
mp-8901,1.3588,Rb2VAgS4
mp-697977,3.1138,Sr2AlH7
mp-570983,0.7311,Sr4Sn2Se9
mp-19161,1.9243,Ca2CoWO6
mp-4468,0.7582,CuSbS2
mp-771713,3.0068,Cr2(WO4)3
mp-17154,2.0228,Rb3SbS4
mp-686701,3.949,Nd3O2F5
mp-756970,3.0567,Al2(SeO4)3
mp-12307,2.0942,Tl2Ge2S5
mp-560352,2.6351,SrP2(XeF6)3
mp-696597,5.7125,B5H9
mp-11739,1.7007,KLaTe2
mp-695805,4.2445,Li2FeP2O7
mp-6192,3.4647,Ba2DySbO6
mp-774745,0.6165,Li3CuS3
mp-763929,0.8134,Ni3OF5
mp-29799,0.4914,KBiO3
mp-558879,0.5957,OsOF4
mp-775844,1.5814,Zr2N2O
mp-776239,1.5286,Zr2N2O
mp-21272,0.2745,ErNiSb
mp-3285,3.4658,Na2Ta4O11
mp-504531,0.5276,CuH20S2(NO7)2
mp-23996,5.4425,BeH8SO8
mp-557589,4.5331,TlZn(PO3)3
mp-770998,2.8701,GdTa3O9
mp-568863,0.7984,LiEu2CBr3N2
mp-15684,1.0676,K2CuAs
mp-18337,3.3129,Be3N2
mp-14889,0.5159,K9Fe2S7
mp-772802,4.45,K2TmPCO7
mp-667379,4.2537,Ba7Al64O103
mp-542541,5.6178,CsPH3O4F
mp-755403,3.2218,Ba2Sc2O5
mp-971673,1.0487,BiS2
mp-771260,4.1331,Y2Hf2O7
mp-770508,0.4472,Li4Ti3Mn3(FeO8)2
mp-21097,1.6155,KLaGeSe4
mp-4359,0.2392,Sr2PdO3
mp-770872,2.4046,Li2Cr2O7
mp-7904,0.4893,CdP4
mp-542749,0.8439,K2(MoSe6)3
mp-759408,3.814,AgH8C4N8F
mp-23891,2.802,NaHO
mp-752882,1.5269,LiAgF2
mp-7615,3.1614,Rb3TlF6
mp-608014,3.2001,K2Ge2Pb2O7
mp-680210,1.5486,Ba3WN4
mp-17499,2.8508,K7Nb(SO4)6
mp-3481,0.3463,KSnAs
mp-24601,5.4779,Al3Si2H3O10
mp-600037,5.4426,SiO2
mp-557074,1.949,BaPr2Ti3O10
mp-29236,1.5714,InTeBr
mp-18112,1.1252,Sr2Ge2Se5
mp-764513,1.6687,Li3Fe8(BO3)8
mp-561098,2.1036,LiUPO6
mp-763436,0.8246,FeOF
mp-995198,4.2252,CO2
mp-1002081,4.0094,KNaICl
mp-775850,2.248,Mn2Fe3Sb(PO4)6
mp-24654,4.4686,KZnP2H5O9
mp-7232,2.0706,Cs2HgO2
mp-9076,2.3621,NaTmS2
mp-697136,5.4038,Be(HO)2
mp-706231,0.5036,NaSr9Fe5(MoO6)5
mp-554303,1.5601,La3U(ClO2)3
mp-775564,1.232,Li2TiV3O8
mp-19148,0.4197,K2Mn2O3
mp-643257,2.6585,K2H4Pd
mp-541867,3.0448,CsRe3(O3F5)2
mp-769519,1.4197,Li21(FeO4)4
mp-41331,0.6442,CaGa2Cu3(SbO6)2
mp-541895,1.438,Na2(ReS2)3
mp-8196,1.7161,AgNO3
mp-558950,0.4985,AgAsO3
mp-684119,1.4422,LiTi(PO3)5
mp-223,3.2501,GeO2
mp-559301,4.488,SbP(Cl2F3)2
mp-549333,1.2695,NdBi2IO4
mp-778554,3.8589,Li2MnF4
mp-555861,4.9442,Na2Th(PO4)2
mp-28532,0.5057,CrInBr3
mp-17651,2.2959,HoPtF7
mp-779088,1.0833,Li2MnV(PO4)3
mp-22961,4.1418,Li2ZnCl4
mp-684477,3.9674,Li2Sb(PO3)5
mp-15983,2.4751,Ba2NaNb5O15
mp-772324,0.2486,Li3MgNi3O8
mp-604909,4.6256,Ca4Si2H2CO11
mp-556630,3.0092,RbAlAs2O7
mp-707239,2.5441,H8C2SeS2(BrN2)2
mp-19412,0.5989,VAg3O4
mp-554835,0,KZrVF7
mp-998358,2.1161,MgAgF3
mp-18742,3.2729,Sr2CaWO6
mp-774378,2.6337,Li3Mn2Fe(BO3)3
mp-764647,2.0299,Na8TiO6
mp-558483,2.086,K4LiIO6
mp-561467,1.9689,YAg3(PS4)2
mp-776730,3.2455,Li2FeF5
mp-759981,0.4566,NaCu(PO3)3
mp-4590,3.112,Mg(GaO2)2
mp-989459,1.5643,B2(CN2)3
mp-559834,2.5124,AgBTe4C(OF4)5
mp-744914,2.9089,Ca8MgAl6Si5O28
mp-768088,1.0908,Mn2Si4O11
mp-573974,2.6482,Tl10Hg3Cl16
mp-10390,1.232,Ta2O5
mp-5999,0.7799,Sm2Ti2S2O5
mp-779589,1.1847,Na3Sb5O14
mp-770852,2.0424,Li2TiNi2O5
mp-780061,1.927,Hf2N2O
mp-24022,4.151,RbH3(SeO3)2
mp-772682,3.1466,Dy2W2O9
mp-768399,3.7764,Ba3Y2Br12
mp-27590,3.7975,CsB9H14
mp-757480,0.4054,Ti5Pb5O14
mp-559010,3.6739,Sb2OsC4(OF3)4
mp-542280,5.1981,Na4Ca(PO3)6
mp-5302,2.6443,Gd2Ti2O7
mp-5813,2.2123,TaNO
mp-25301,3.3238,Ti(SiO3)2
mp-643814,3.1469,Zn2SiH2O5
mp-989530,0.5414,SrTcN3
mp-542168,2.7202,Cs2CoSiO4
mp-767424,0.2968,KLiSb3O8
mp-769014,3.9092,Ho2(SeO3)3
mp-23160,2.9284,ThBr4
mp-541393,1.8164,K3NaRe2O9
mp-569410,1.6442,PCl5
mp-23302,3.3455,RbI
mp-16613,0.5888,AlAuO2
mp-752754,0.3483,Hf2N2O
mp-769059,2.0684,Li3NbS4
mp-769147,3.8169,Y2(SeO4)3
mp-18391,4.7682,Sm2Si2O7
mp-721562,5.0485,K2P3H5O11
mp-14353,3.4576,BaNaNd(GeO3)3
mp-772181,2.1902,Cs3GaO3
mp-18274,2.5798,Ba4LiNb3O12
mp-769549,2.2921,LiZnCr3(SO4)6
mp-961648,1.1738,KBaP
mp-28499,2.1222,Al10Ge2O19
mp-9143,7.5394,LiPF6
mp-554423,5.689,Y(PO3)3
mp-772323,1.4994,Li2Cr4O13
mp-973391,1.6991,LiSiB6
mp-541915,1.3229,K2Ag(AsSe2)3
mp-707419,4.873,NaB(HO)4
mp-554014,0.2184,Li2Cu5(Si2O7)2
mp-17769,5.8491,YSO4F
mp-558317,3.4132,KNaPrNbO5
mp-504605,4.4711,Na2SiH16O11
mp-707905,4.5884,PH7N2O3
mp-770669,1.2617,Li24Mn11CrO36
mp-27851,1.772,Hg3(SeCl)2
mp-17410,1.5441,CsEr3Se5
mp-33569,1.8829,Sr(LaSe2)2
mp-661,4.039,AlN
mp-549697,2.4287,RbGeIO6
mp-989531,6.0426,Cs2KGaF6
mp-5492,4.0564,SrAl2O4
mp-30890,0.5766,Hg3SO6
mp-755107,2.9311,Dy2TiO5
mp-8796,4.6287,Sr2LiSc(B2O5)2
mp-601302,3.1228,GdP2H9O11
mp-9359,0.6092,ZnSi(AgO2)2
mp-555137,3.0786,K3SbN3(O3F)3
mp-761931,1.0583,Na8SnO6
mp-27723,1.734,USeO5
mp-775992,0.587,TiNi3Sb2(PO4)6
mp-552992,1.3382,DyBi2BrO4
mp-29991,1.3356,Bi2Te4Cl7
mp-14624,0.4877,K5P2Au
mp-600065,5.3276,SiO2
mp-28608,1.255,Ga3Te3I
mp-768152,4.0071,NaZrPCO7
mp-675325,0.7128,Al(Ag3S2)3
mp-752437,2.6397,SmInO3
mp-10550,1.6917,SrMg2N2
mp-756459,2.3149,Cs3TmO3
mp-766954,1.8982,LiVF5
mp-28295,3.0624,CsIO3
mp-771049,1.3633,Li2CoBO4
mp-768873,3.7621,Y2GeO5
mp-696655,3.9167,Sb2P3(HO3)3
mp-556498,4.0797,Sr2Be2B2O7
mp-974757,3.0876,KBeH3
mp-768053,2.4449,Na2FePCO7
mp-9595,3.0147,NbInO4
mp-557672,1.9189,Ga2Pb2S5
mp-779905,2.6543,Li3Mn2Fe(BO3)3
mp-616196,1.7892,OsC3I2O3
mp-675376,0.7128,HoAgSe2
mp-755421,4.148,Ca6HfO8
mp-557615,1.4357,K3Np(H3O4)2
mp-12315,5.3595,DyBO3
mp-652663,1.9165,K2PtS15
mp-17389,1.4433,Pr3SiAgSe7
mp-758317,2.333,YTa3O9
mp-773171,1.0127,TiMn(PO4)2
mp-721293,2.0407,Na4GeH28(Se2O7)2
mp-703348,2.522,UP3HO11
mp-555286,2.5346,CsNb(PO4)2
mp-557761,1.0302,KBa4Sb3O
mp-866308,5.6947,CaB2(H7N)2
mp-24603,5.0626,CaAl2Si2(H2O5)2
mp-767149,2.6144,Li2FeSi3O8
mp-557070,3.2393,Ca2BiAsO6
mp-554315,5.6915,CaBeB2O5
mp-764622,1.2172,LiMnV(P2O7)2
mp-866665,6.5113,LiMgB3(H9N)2
mp-770533,2.6041,Li6MnO4
mp-24591,4.3044,ZnH2SeO4
mp-557993,1.0245,BiO2
mp-505233,2.5332,Cs2Sn(H2N)6
mp-27743,1.814,BiF5
mp-24566,4.136,MgH8(IO5)2
mp-707311,4.0843,ZnPH3O5
mp-546082,1.4326,TmBi2ClO4
mp-776032,2.9025,Ba2YI7
mp-540818,1.4048,Tl2Ge2Se5
mp-607987,2.2731,CsInI4
mp-23748,5.4356,MgBHO3
mp-28237,4.322,RbLiBr2
mp-777525,3.22,LiFeF4
mp-15788,1.9353,LiYS2
mp-685150,4.3738,PbF2
mp-759848,2.4867,Bi4O5F2
mp-754710,3.6671,Sr2CaI6
mp-1244,0.4377,SrGe2
mp-762390,1.2639,LiV5O10
mp-22867,4.1927,RbBr
mp-505750,1.0365,Rb(SnSe2)2
mp-623092,1.8749,Gd4Au2O9
mp-8652,5.8901,SF6
mp-567967,2.4872,LiGaI4
mp-5094,0.408,Co2(GeSe)3
mp-775306,1.9461,Li2Ti3FeO8
mp-662823,1.0556,In10(Pb2S7)3
mp-9062,1.5903,RbS
mp-542164,1.0944,CsTb2Ag3Se5
mp-849690,1.7271,LiFe4(BO3)4
mp-24072,3.5225,AgH5S2O9
mp-568544,1.7462,CsCdCl3
mp-542300,5.4478,Na2B8O13
mp-753968,1.7001,Li2WS4
mp-8360,0.8245,RbTe
mp-755617,4.0048,NaHoO2
mp-705365,1.4736,Li2V(PO4)2
mp-35925,1.815,NiO2
mp-694855,1.3476,Li2MoO3
mp-998365,1.9448,NiAgF3
mp-568970,1.5882,K3SnIrCl8
mp-540038,2.4809,LiMo(PO4)2
mp-21699,2.462,BaLa2In2O7
mp-683972,2.6729,Cs5Ag4C8IN8
mp-504880,4.8956,CaH12CO9
mp-554903,4.3763,TbSeClO3
mp-560732,6.0588,BaNaZrF7
mp-7670,0.635,K2Se3
mp-867965,0.4811,Sm3MnAlS7
mp-684680,1.4266,Yb2S3
mp-18817,2.1076,NiSeO4
mp-770400,1.6721,Li2AlNiO4
mp-23691,4.541,Tl(BH)6
mp-772524,2.7544,LiTi2(PO4)3
mp-6249,4.5712,Sr3Nd2(BO3)4
mp-12933,4.0449,TmTaO4
mp-541014,1.5434,Cs3Sb2I9
mp-757845,1.0876,LiNb(PO3)4
mp-703260,3.5974,PbWO4
mp-570505,2.2492,Ca3(AlN2)2
mp-758929,0.3258,Li2Cu(PO3)4
mp-684109,3.9872,LiBiP2O7
mp-504564,2.0254,Si(PbS2)2
mp-744629,2.7631,CoH18C4N8(ClO)4
mp-11107,3.5231,Ac2O3
mp-774432,1.8116,K2Li3NiO4
mp-30056,4.4044,CsCaBr3
mp-755240,0.3653,AsAuO3
mp-10782,1.9451,RbTbSe2
mp-631545,0.5018,LiBBr2
mp-558078,4.0723,Rb2NaFeF6
mp-19097,1.7085,FeBO3
mp-766947,3.7854,Sn(PO3)2
mp-3932,4.4296,Ca3Si2O7
mp-12491,1.7301,CsLaCdTe3
mp-12622,1.1627,SrPdF4
mp-866716,0.9991,RbLiH12Se3N4
mp-19140,1.9861,K3MnO4
mp-28048,1.8089,KTlBr4
mp-767927,1.3237,Li4TiV4Cr4O18
mp-776782,2.9551,Ba6YI15
mp-20282,3.3457,CsPbF3
mp-764401,0.8956,MnFe(PO4)2
mp-849951,2.8474,Li2Fe4OF8
mp-779883,0.9932,LiV2P4(HO8)2
mp-676816,5.3369,La2PbF8
mp-775300,1.6213,Na3CoO3
mp-675620,2.0735,Nd2PbS4
mp-18293,5.456,SiP2O7
mp-19390,1.1124,WO3
mp-555085,2.0173,KAu(NO3)4
mp-766448,3.5981,NaSnPHO4F
mp-766597,1.0343,Li4Ti5S12
mp-532105,5.5581,SiO2
mp-774527,2.7642,Na2Ti12O25
mp-23333,1.4647,Hg3Cl4O
mp-542069,3.4757,Cs8Ta6O19
mp-561084,4.0823,Nd4Al2O9
mp-29237,0.9872,Tl2SnSe3
mp-556229,1.843,Li2MnF5
mp-768479,3.2298,YScO3
mp-771089,0.2598,Li4MnFe5O12
mp-20261,0.8621,Mn(GaSe2)2
mp-510625,1.4585,CrCuO2
mp-755740,4.4709,TbHoO3
mp-556756,2.2135,KSb2PO8
mp-697038,1.8774,Ba2H6Ru
mp-556637,3.0126,Ba6Na2Nb2P2O17
mp-555113,0.5187,Rb3Cu2(BiS2)5
mp-754093,1.616,Gd2CdO4
mp-24438,5.196,K2MgH12(SO7)2
mp-540415,1.2335,LiMnP2O7
mp-554741,2.6388,KErP2S7
mp-780676,0,Na2Cr4O13
mp-558795,4.5949,KMgPO4
mp-19231,1.6342,Mn(SbO2)2
mp-542884,5.0725,Rb2BeH4(SO5)2
mp-758287,0.3655,Li3Ti2(PO4)3
mp-28400,1.0025,P3Ru
mp-570572,1.3802,C3N4
mp-774752,3.2915,Li2MgTi3O8
mp-20940,2.4627,TiCdO3
mp-23955,0.583,CuH2SeO5
mp-776064,2.6846,Li2VPO4F
mp-554887,1.9426,KUNbO6
mp-850744,1.4143,Fe3(SiO4)2
mp-606604,7.0402,CsLi2F3
mp-560193,2.7567,SnSe2(Cl4O)2
mp-2943,6.9361,KY3F10
mp-768776,3.5992,LiBiB2O5
mp-9179,0.5164,Ba3Zr2S7