id,band_gap,pretty_formula
mp-10409,1.5191,Ba4Nd2Cd3Se10
mp-7652,1.1596,Na5TlO4
mp-772668,0.8495,Li3MnSiCO7
mp-779424,2.7834,Gd3TaO7
mp-762089,2.1349,Na4SnH32(SeO4)4
mp-555236,3.0235,Tm2Te5O13
mp-557470,4.3549,K2Sb2S(O2F3)2
mp-770487,0.4797,Li3V3(BO5)2
mp-755794,2.0394,Rb3LuO3
mp-777461,1.3335,Li4V3Cr2Sn3O16
mp-625145,4.1694,H7ClO3
mp-558294,4.5167,Li3TaO4
mp-8429,0.4302,K4IrO4
mp-18782,0,LiFeO2
mp-3316,2.2116,BaCeO3
mp-756135,2.5885,Tb3NbO7
mp-12047,0.4942,K3Na(RuO4)2
mp-675767,2.1413,La2YbS4
mp-560786,0.5022,Nd10S19
mp-735514,3.1912,MnH18C4N8(ClO)4
mp-984350,0.5787,Dy3Sb4Au3
mp-757,0.6365,Li3As
mp-5440,5.612,AlPO4
mp-4555,3.2956,Ca(AsO3)2
mp-780313,0.084,LiVP3(H7O8)2
mp-696941,0.8284,K2H2RuO5
mp-540391,1.0242,CoPO4
mp-698358,1.916,NiH10C4(SN4)2
mp-653930,1.5366,CuAs2Pb8Cl5O9
mp-216,3.8235,Sc2O3
mp-695984,3.8891,BaRe2H2O9
mp-19120,2.4349,MgCrO4
mp-504948,3.9614,LiScGeO4
mp-557266,0.2876,HgO2
mp-18451,7.0612,KEr3F10
mp-545847,1.4006,LuBi2BrO4
mp-29095,5.7206,H4SO5
mp-12046,0.5156,Rb3Na(RuO4)2
mp-776041,2.08,V2O5
mp-17660,1.0199,SrPrCuSe3
mp-17756,0.6095,RbAg2SbS4
mp-616204,4.144,Ga3Cl7
mp-667342,1.6819,Bi12PbO20
mp-705336,2.7782,Li2Co3(P2O7)2
mp-760515,2.4394,Ba3Sr4O7
mp-5033,4.9687,Tl2SiF6
mp-755413,1.0916,Na2O
mp-12814,0.7075,Ba3SbN
mp-735519,3.0239,KHoCoSi2O7
mp-721255,5.1063,Li10Si(PO6)2
mp-21724,3.103,ZnSiPbO4
mp-757070,3.0451,BaCaI4
mp-771515,1.3721,Li6V3W3O16
mp-766923,1.8513,LiVSiO4
mp-550553,2.8418,CdBiClO2
mp-555661,4.3213,Ca9In(PO4)7
mp-676813,1.7042,RbAg4I5
mp-505322,1.2563,CsTa(CuTe2)2
mp-15317,6.4808,Rb2NaHoF6
mp-23764,4.2448,Mg3Si2H4O9
mp-1019532,4.1915,BaAl4O7
mp-23630,1.3611,NbBi4ClO8
mp-647489,2.3676,CdI2
mp-15349,3.568,Li2GeO3
mp-768827,3.171,BaSrI4
mp-8216,4.5012,LaBO3
mp-754044,2.9346,Ho2TiO5
mp-560545,2.6021,Na2Ca(AsO3)4
mp-1020621,4.864,RbBe2B3O7
mp-625402,3.7105,Sm(HO)3
mp-626241,3.4469,Sr(H8O5)2
mp-662599,0.8906,Ag3AsSe3
mp-4699,2.3847,NaTaO3
mp-14037,1.7809,NaTl2RhF6
mp-979137,0.4531,SrGaSiH
mp-779096,3.5119,Tm3TaO7
mp-561533,3.3231,SbOF
mp-9309,3.4027,CsTa(BO3)2
mp-766984,0.3329,Li2Fe(Si2O5)3
mp-770744,1.5544,Li4Nb2Fe3Sn3O16
mp-997569,2.1635,AlP
mp-560326,3.3351,Ba5B3CNO9
mp-8702,2.7272,LiGaGeO4
mp-8133,4.7024,LaPO4
mp-9406,2.1148,Li2La2Ti3O10
mp-696138,2.3644,Li10Ge(PS6)2
mp-510002,3.6714,K2Sn(HO)6
mp-15998,1.1053,RbV(CuS2)2
mp-744637,1.9457,Ba2V3P6HO22
mp-735483,4.6221,Na3LiMo2(H6O7)2
mp-754517,3.7364,SrCa2I6
mp-740759,2.7756,Yb19(Mg4H27)2
mp-773178,2.3858,Na2CrCSO7
mp-572634,3.4407,Al2AgCl5O
mp-780230,2.0011,Hf2N2O
mp-20790,2.3268,InPS4
mp-29396,0.6462,Cu2PbO2
mp-19395,1.0729,MnO2
mp-849761,2.191,GaBi25O39
mp-767723,1.8542,LiV2F9
mp-12295,4.1563,Sr3La2(BO3)4
mp-572763,2.136,TaP4(SCl)5
mp-582146,0.4575,CsNb4Cl11
mp-17924,4.2542,ZnP2PbO7
mp-28996,1.6427,Ag4Bi2O5
mp-560152,5.6113,SiO2
mp-777896,1.6524,Li2V3NiO8
mp-27311,3.0102,LaCO
mp-2920,4.0215,LaAlO3
mp-22023,2.9378,Pb3SO6
mp-553956,3.1822,P2Pb3O8
mp-8111,4.257,LaOF
mp-34489,0.407,LiInSe2
mp-628643,0.7906,CuAsPbS3
mp-776610,3.1662,Ba6YI15
mp-560366,2.7851,XeF6
mp-764057,1.6412,VO2F
mp-677454,2.5132,P6(Pb2O5)5
mp-554583,5.2489,DyP5O14
mp-759405,3.285,Bi3O2F5
mp-26855,3.9146,Li2Sn(PO3)4
mp-772155,3.3761,Li2BiAsCO7
mp-770745,1.5205,Li2Cr2O7
mp-756510,3.1491,K4TiO4
mp-540962,4.8922,KLa(PO3)4
mp-707307,5.6698,Nd2P3(HO2)5
mp-554472,5.0611,PNClF
mp-5784,2.9889,Na2GeO3
mp-675219,2.2419,Ba9(LaS6)2
mp-24136,5.3874,Cs(BH)6
mp-31096,3.6018,Li3AlH6
mp-768991,1.9868,Li4Bi2C4SO16
mp-9778,1.2394,K2AgP
mp-561318,0.5734,Ba2AlCu2F11
mp-695202,1.9945,Mg4Al9Cu(SiO4)9
mp-605108,5.8942,Al2P3H11O13
mp-540586,1.1265,Tl2SnO3
mp-4690,2.9948,K3TaO8
mp-673096,0.2222,Li3Sn(PO3)6
mp-27229,3.2472,Sb6S2O15
mp-6702,3.7158,Na7In4P9O32
mp-777679,3.384,LiFeF4
mp-776860,0.5905,Li4Fe3Co3(WO8)2
mp-997159,1.0801,CrAuO2
mp-567763,3.5811,Pr(C2N3)3
mp-6492,3.5379,Ba2YSbO6
mp-745164,2.9477,FeP3(HO5)2
mp-774708,4.089,ZnH12C3S4(N3O2)2
mp-505771,4.3382,K2NaH5(CO4)2
mp-851090,3.3842,SrLaCl5
mp-17816,1.4133,Na5AsO5
mp-34296,1.5023,Zn(FeO2)2
mp-30925,2.1868,La(NO2)3
mp-18090,1.0798,Ba3TaAs3O
mp-650841,3.3617,GaBr2
mp-571193,0.5601,MnP4
mp-865218,1.9073,YbTiO3
mp-1019786,4.2518,K3Zn(BO2)5
mp-779913,1.7291,Fe3OF5
mp-600029,5.4247,SiO2
mp-8727,1.8014,Ba4PtO6
mp-780303,1.2772,Li4Fe3SbO8
mp-768972,4.5838,Ba3Y2Cl12
mp-557810,7.5679,BaH6F8
mp-560144,1.6315,K2RuBr5NO
mp-757785,2.0942,Bi12PbO19
mp-552098,0.3778,Bi2SeO2
mp-779287,2.2372,La2HgO4
mp-540626,3.6512,NiH8(IO5)2
mp-769307,4.5006,Ca4Ta2O9
mp-18864,4.388,Rb2WO4
mp-7295,0.3061,RbCr5S8
mp-867153,5.3602,Rb2MgP4(HO2)8
mp-28277,3.0315,K2PrI5
mp-23457,3.0408,PBr2N
mp-558958,5.4556,H2O
mp-559833,5.261,Na2YC(OF)3
mp-555267,0.5123,CuHgSBr
mp-675230,2.4415,NaLaS2
mp-40668,3.0924,NaCoP2HO7
mp-743676,0.8914,VH10S2(NO4)2
mp-555438,6.4405,Ba3AlF9
mp-1019777,4.2027,K2La2B2O7
mp-755756,1.0627,Y2TeO2
mp-32028,0.4353,Mn(PO3)4
mp-722766,2.8975,CaHgH16(BrO2)4
mp-758945,0.2156,Li5CuHO4
mp-850930,4.3429,Li3MnF5
mp-555958,5.4511,Ba2Li3(PO3)7
mp-19207,0.497,Sr2CoWO6
mp-722188,4.8688,NaCa4Si8H16O28F
mp-1986,0.6311,ZnO
mp-545603,1.6618,Ba2BiSbO6
mp-560005,1.8316,TlRe3(S2Cl)2
mp-559385,3.7325,SrHo2O4
mp-628726,5.2875,Sr(AlCl4)2
mp-762694,1.6201,Li3Ti2Fe3O10
mp-770811,4.5594,Si2As2O7
mp-23858,1.7386,H8PtN2(ClO)2
mp-766967,2.8647,Li2Mn3(Si3O8)2
mp-554882,0.3957,DyCuTe2ClO6
mp-531175,0.6883,Cd(GaO2)2
mp-777779,0.3892,Li4Mn(TeO4)3
mp-755311,4.061,NaLuO2
mp-781961,2.6724,LiCrPH2O5
mp-680683,5.4514,CsB9O14
mp-29320,2.6201,Te3SeO8
mp-23494,2.313,Ti(Bi3O5)4
mp-29839,2.8442,Bi2SeO5
mp-686748,4.4653,Ca2Al2Si(HO4)2
mp-770879,1.4464,Fe5Co(PO4)6
mp-625175,5.4045,H3ClO5
mp-763328,0.6344,Co4OF11
mp-18749,3.266,NiSO4
mp-23485,1.2206,Ag2HgI4
mp-662815,0.4111,Mn(GaS2)2
mp-989606,1.81,CaReN3
mp-1001012,0.5765,Sc2ZnS4
mp-770382,1.0554,Li3V3(BO5)2
mp-1019806,5.1751,KMg6P7O24
mp-559961,3.3195,Tl2SeO4
mp-680674,2.5966,Cs3Bi2Br9
mp-567956,1.637,GaSe2NCl6
mp-6167,2.9828,Ba2NdNbO6
mp-605821,1.2106,Nd3SeBrN2
mp-989195,3.9172,ScClO
mp-3277,4.2651,BAsO4
mp-768317,4.5469,Dy2SiO5
mp-17784,2.8697,CaTiGeO5
mp-5618,3.0413,Mg2As2O7
mp-29416,1.5334,Pr5C2Br9
mp-557004,5.5806,SiO2
mp-23914,4.9878,CaH12(ClO3)2
mp-744625,3.8247,ZnCrH15N5Cl4F
mp-9702,2.0162,Sr3BPO3
mp-720279,3.3168,Na4H20RuS4(NO9)2
mp-560824,1.0963,La6B(NO2)3
mp-2918,2.649,YCuO2
mp-772403,0.9857,NbVO4
mp-867570,2.4295,Rb4Sb2O5
mp-850747,3.2538,LiFe2P2HO8
mp-7905,4.7684,SiO2
mp-707424,4.7445,Al2H12(SeO5)3
mp-11737,4.7741,Li4SiO4
mp-9405,3.8394,K3SeO4F
mp-23648,5.2612,Li4Al3Si3ClO12
mp-770847,1.3023,La2Cd2O5
mp-22958,3.8455,KBrO3
mp-997011,0.439,CuBrO2
mp-757205,2.7166,Y2Th5O13
mp-755891,4.5129,CsLiH4SO5
mp-570972,1.0408,K2Mn(NbCl3)6
mp-704227,0.2415,Mn9(PO4)8
mp-5127,1.4342,LiCuO
mp-542622,4.1559,P4O7
mp-764063,0.6812,Li2CoO2F
mp-23609,4.4852,Zn3B7ClO13
mp-772583,3.2671,Ca3W2O9
mp-730,1.0645,P2Pt
mp-777233,6.6724,BaYF5
mp-7938,0.821,KNbS2
mp-540138,0,MoPO5
mp-762239,1.2569,Mn(CO3)2
mp-756317,1.3461,Al2HgO4
mp-569603,0.2397,BaCa4(CuN2)2
mp-753677,2.5678,Li3BiS3
mp-974682,1.3537,RbGaH2
mp-558411,2.7028,Y2Zr2O7
mp-779738,2.0581,Hf2N2O
mp-557962,2.3926,SrLiBS3
mp-776110,2.554,SiSnO3
mp-23827,3.8686,Sr7(H6Cl)2
mp-554191,1.8662,Na2UO4
mp-764506,1.4032,Li3Fe8(BO3)8
mp-556553,5.1327,SiO2
mp-22893,2.3871,PbI2
mp-644418,3.56,CaH2CClO3
mp-769001,3.47,Li6Sn2B4SO16
mp-694629,1.2035,V3(PO4)4
mp-557826,1.9176,Li3U7(PO7)5
mp-39542,4.5843,KRb2ZrOF5
mp-616577,1.8788,Sr3BCNCl2
mp-759657,0.4491,Li3CuF6
mp-1013554,0.5117,Sr3PN
mp-768185,2.2457,Ba4Li4Ti19O44
mp-18303,1.2003,Nd3CuSnSe7
mp-676666,2.1299,Rb2CeO3
mp-13339,0.6232,EuCuTeF
mp-780192,2.5866,Li5FeO4
mp-626885,1.8955,U(HO2)2
mp-18953,2.3509,NaV(OF)2
mp-769590,0.9958,Li2V3CrO8
mp-780862,0.1527,Mn2OF3
mp-17395,0.7755,TmCu(BO2)5
mp-5014,0.5629,CuAgS
mp-556382,0.8961,EuClF
mp-27377,3.1866,K4Zr5O12
mp-18509,6.2458,KBe3ZnF9
mp-27452,1.5674,Al2PdCl8
mp-759441,1.4952,LiCu(PO3)2
mp-721236,2.3384,Li10Sn(PS6)2
mp-780172,3.1122,Tm2TeO6
mp-773016,5.3442,Lu2P4O13
mp-7440,0.8676,NaP
mp-626073,4.574,Al(HO)3
mp-756593,2.2021,Ta3(OF)5
mp-9841,5.8883,Er2(SO4)3
mp-24402,5.2441,CaAlSiHO5
mp-783907,4.0445,LiMnP2HO7
mp-3006,1.5818,P2Pd3S8
mp-850757,1.593,Fe3OF5
mp-39626,2.0439,SrLaMnWO6
mp-35249,3.7274,Sm2Hf2O7
mp-542840,3.3503,In2Si2Pb2O9
mp-760092,3.0222,SbOF
mp-775200,0.2713,MnNi(PO4)2
mp-29048,2.5176,Sr(BiO2)2
mp-28091,3.0178,In2(TeO3)3
mp-18776,2.7479,CaCoP2O7
mp-984766,5.1281,Ca(BH4)2
mp-17166,4.8199,K2B4O7
mp-578882,1.7238,SbPb2S2I3
mp-27802,1.3521,BaSn2S3
mp-17676,2.0801,Sr2SnS3F2
mp-29030,3.2158,ThTl3F7
mp-703316,2.5942,LaMg2H7
mp-559730,2.9729,KGa(Te3O7)2
mp-699543,2.3333,Na2Co5Mo4(ClO4)4
mp-18721,3.2709,Mn2P2O7
mp-767709,2.5799,Li2Mn3Si3O10
mp-7589,2.1245,Mg2NF
mp-733729,3.3692,RbInPHO5
mp-7104,6.877,CsCaF3
mp-9086,2.1617,CsDyS2
mp-4851,3.0685,Sr(GaO2)2
mp-763229,0.937,VOF
mp-556031,3.6367,Sn2P2O7
mp-27739,4.0652,As2S2O9
mp-754444,0.2502,Zn(AgO2)2
mp-707485,0.5323,K4Cu3As4(HO8)2
mp-570538,3.9425,NaN3
mp-6245,3.4222,K5Nb4O12F
mp-643573,1.6702,Mg3MnH7
mp-760370,2.9851,Bi6O5F8
mp-1020616,4.4904,RbMgPO4
mp-625154,1.6164,H8PtO6
mp-779360,1.5024,VOF
mp-775935,3.8575,ZrO2
mp-676290,1.3711,RbHS
mp-776692,3.0811,LiFe2F7
mp-28198,2.5376,RbInI4
mp-556592,2.0452,TlBi(PS3)2
mp-6674,3.8734,LiLa2SbO6
mp-29789,5.7305,Lu(ClO4)3
mp-505357,1.4358,InSeI
mp-769049,3.7851,BaLaCl5
mp-541738,1.0526,Cs3Cr2I9
mp-764415,0.515,MnFeCo(PO4)3
mp-768041,1.9105,Li4MnCr3(PO4)4
mp-554649,2.4077,Na3NiF6
mp-1853,1.8229,Sr3P14
mp-774306,0.6754,LiCrPO5
mp-707105,5.8871,Li3B5(HO5)2
mp-780874,1.026,KLi2Mn2O4
mp-755856,2.6409,Mg2SnO4
mp-761090,2.7882,Na3BiO3
mp-558977,0.8793,LaErS3
mp-1020707,4.0844,Rb2GeB4O9
mp-998427,0.3726,BaZrSe3
mp-696485,3.4407,Na2TeHSO5F3
mp-767604,3.2491,Li12Nb14ZnO42
mp-4138,3.2778,Rb2CO3
mp-772787,3.297,Gd2P4O13
mp-23496,2.2789,CsAg2I3
mp-23207,0.964,ClO2
mp-626295,3.5473,Ba(H8O5)2
mp-770506,1.4458,V5BO9
mp-606691,2.3917,KU2P3O14
mp-555700,5.484,SiO2
mp-11605,1.0006,KTb2CuS4
mp-3879,0.8405,Ba2CuF6
mp-540611,5.4491,RbNd(PO3)4
mp-540760,1.4434,FePCl8
mp-27018,2.4403,SnPO4
mp-3378,4.1716,SrHfO3
mp-562764,2.5247,Ba7B4S13
mp-9636,5.0883,CsSbF6
mp-744801,2.676,RbVH24(SO10)2
mp-541240,3.7777,Sb3O2F5
mp-540482,1.2408,LiCrP2O7
mp-772199,0.6095,Rb3ClO
mp-31924,1.229,LiMnP2O7
mp-709350,3.2627,Sr5As5HO18
mp-12011,2.4464,KTbGeS4
mp-560608,1.8331,Nd10S14O
mp-642991,4.0308,TbH3(CO2)3
mp-554543,5.4402,SiO2
mp-779363,0.9161,Cr4OF11
mp-23091,1.7763,Ba2BiSbO6
mp-756272,4.3645,LaDyO3
mp-18352,3.8435,HfTe3O8
mp-723426,5.1291,NaLiP2(H4O5)2
mp-555965,1.9427,Li2ZnSn3O8
mp-571621,3.3905,Ba3Na2(CN2)4
mp-22913,0.4859,CuBr
mp-779904,2.8499,Ni(IO3)2
mp-676077,1.9558,Ce3Nd2O9
mp-531132,4.9795,Ca3(PO4)2
mp-1019522,5.6734,Ba2B10O17
mp-754628,0.8351,WN2
mp-607806,1.5215,Ho3Se3N
mp-554873,3.2653,Ag2B8O13
mp-17885,0.6348,Ba2Ge2Te5
mp-546790,1.1967,LaCuTeO
mp-605461,1.6805,K3UH6C5SNO13
mp-23009,2.4258,Ca2BrN
mp-9008,1.108,RbTeAu
mp-24348,4.9612,BiP4HO12
mp-721901,5.2017,K2B4H8O11
mp-16884,1.1586,RbEr2Cu3Se5
mp-560882,3.4204,SeO2
mp-675300,2.862,Ho2Zr2O7
mp-22896,3.646,LaCl3
mp-5769,3.0469,Li3SbO4
mp-23651,3.4006,Na4Al3Ge3IO12
mp-770611,3.2894,Li2CoH8(SO6)2
mp-23522,4.5948,BaZnCl4
mp-867154,2.631,BP4(SBr)3
mp-558111,3.3104,Rb2MnF6
mp-10378,0.6214,Cs3Sb
mp-703539,3.2973,AgB11H6CBr6
mp-23451,1.3066,Cs3Cr2Br9
mp-11670,2.734,BaYSi4N7
mp-22605,0.3331,Cr2CdSe4
mp-541878,2.3158,K2Ge2S5
mp-12779,0.6198,CdTe
mp-760758,2.1749,Bi3O4F
mp-772925,3.0153,Li4Ti5O12
mp-24461,2.3892,H12OsN5Cl3O
mp-570930,0.4275,Bi2Pb2Se5
mp-29576,1.075,Cd7P10
mp-560625,3.3783,RePbClO4
mp-556001,4.9784,NaBeSi3HO8
mp-382,0.279,Th3As4
mp-770894,2.2453,Li2CrPO4F
mp-10950,0.2247,Sr2Cu(PO4)2
mp-570921,0.9452,CsLu(NbCl3)6
mp-695866,6.2707,BeH8(NF2)2
mp-989522,0.2261,Mg6Bi2PN
mp-11653,6.9876,BPO4
mp-5972,0.2524,CsPd2F5
mp-8128,3.3344,NaNdO2
mp-555999,0.2243,Np(IO3)4
mp-28299,2.1387,USe2O7
mp-769481,3.54,Y4Ga2O9
mp-8184,3.1087,Li2ZnGeO4
mp-687090,3.2776,Hf(MoO4)2
mp-762988,3.5933,LiMnF3
mp-23408,1.0173,Tl4Bi2S5
mp-23033,1.9398,Sr2NCl
mp-780087,1.1633,LiMnSiO4
mp-772886,3.9737,BaLa2Cl8
mp-32689,1.426,Pr2Se3
mp-989604,1.8386,YMoN3
mp-542158,1.9991,FeNiPO5
mp-764985,0.2508,Li8Fe3Co7O20
mp-510459,1.0502,MnVCuO4
mp-754500,2.8497,LiSn2P4H3O16
mp-774390,0.8643,Mn3SbO8
mp-36086,1.0371,Li3NbO4
mp-722245,2.3718,K2H2C2S2N2O
mp-552200,2.7128,Ba2TaBiO6
mp-568949,2.1998,TlBr
mp-667292,4.4841,K2MgSi5O12
mp-560042,1.4827,AsS3(NF3)2
mp-773463,0.9381,K2CoPCO7
mp-753459,1.5116,Nb3O7F
mp-24170,6.0672,CaPH3O4
mp-11115,0.9809,RbCuPdSe5
mp-675345,1.4487,Bi5(S2Cl)3
mp-6600,4.8135,K2Zr(SiO3)3
mp-770558,1.2825,MnP2O7
mp-505825,1.3753,Cs2PtC2
mp-697676,2.7918,H2Pb4SO8
mp-8110,5.8309,AlBO3
mp-1253,1.9607,BaSe
mp-643066,4.2653,ZnH2SO5
mp-759071,4.3073,LiSb(PO3)4
mp-2286,2.9974,Li2Se
mp-5273,1.2794,KPrTe2
mp-849509,2.7213,Li2VPO4F
mp-763519,0.507,Li4Mn3Nb2Co3O16
mp-775180,0.529,Li2Co3WO8
mp-26875,1.4347,Li2CuPO4
mp-505558,1.1134,Dy3CuGeSe7
mp-23126,2.3602,KAs4IO6
mp-676951,2.8182,Dy3NbO7
mp-558045,5.1689,NaLi2PO4
mp-6280,5.6953,Al2Si(O2F)2
mp-996969,1.4298,AgBiO2
mp-30032,2.0261,TlIO4
mp-760188,2.2294,Nb3O7F
mp-704197,1.6961,Li2Mo(PO4)2
mp-849429,1.5985,Li3Co2OF5
mp-556826,5.4568,Ca(BO2)2
mp-758379,0.9859,Y11Ta5O28
mp-777787,3.6679,HoAsO4
mp-24405,1.8569,LiCd4Ge5HO15
mp-850914,2.5802,Li4CrF6
mp-30529,4.7472,B5H11
mp-22887,1.2144,EuCl2
mp-573202,2.2944,K3Ta2Ag3S8
mp-779046,2.0374,Li5Cu(PO4)2
mp-625560,3.8402,H7BrO3
mp-560670,3.1258,MgSeO4
mp-14169,0.3374,Li4UF8
mp-13664,2.928,Sr2Ta2O7
mp-30942,6.5478,Ba6Mg11F34
mp-770394,1.4146,Na5Fe2P2(CO7)2
mp-628618,0.6046,Ba5Os3NO18
mp-8804,2.6145,Li6MoN4
mp-703231,2.8381,CdFe2Sb2(PO4)6
mp-40685,2.2791,NaSm3Ti2(SbO7)2
mp-626435,4.9665,Al(HO)3
mp-9380,3.0655,SrGe4O9
mp-557748,2.4943,SbIrC2(OF3)2
mp-752671,4.0581,Ba2SrI6
mp-696656,7.0587,BH4O2F3
mp-557028,3.0179,Sr2LaTa3O11
mp-753022,1.5021,NaGa5O8
mp-773906,4.9205,KNaZrSi3H4O11
mp-10614,0.8282,SrLiP
mp-769922,0.5903,V2SiO4
mp-14215,1.0183,Ba4GeP4
mp-486,0.4079,NiP2
mp-561124,3.7087,Ho3Se4O12F
mp-694994,1.1317,CoH22N7(ClO2)4
mp-531792,5.5183,LuZr3F15
mp-541911,2.2439,HfNCl
mp-28853,1.8007,LaAuO3
mp-560358,4.1026,Zr2P2O9
mp-680689,1.8642,SrTi2O5
mp-542550,2.3924,Cs2Si2Se5
mp-759534,0.563,LiBi2(SO4)3
mp-6759,4.009,BaGa2(SiO4)2
mp-667314,1.2376,Ba9(TaN6)2
mp-675751,3.1558,Zr7N2O11
mp-29696,1.2427,K4Sb2O3
mp-15182,4.2865,Rb2LiCo(CN)6
mp-768959,2.0394,Na4Sb2C4SO16
mp-15408,5.2165,KGaF4
mp-1020125,4.5985,MgSiO3
mp-1019557,4.6759,BaS4O13
mp-23558,0.4142,Ag2BiO3
mp-28294,3.5093,Sb11F43
mp-971678,2.3343,Na3Ni2SbO6
mp-762344,0.2512,Na8Nb5O14
mp-770538,0.7684,Mn2PO5
mp-761324,0.3386,LiSiNiO4
mp-18803,4.7521,Na2WO4
mp-756014,3.0638,Ba4HfO6
mp-7909,1.6184,Al2CdTe4
mp-757479,2.2921,Li2Sn(PO3)6
mp-15794,1.5373,LiYSe2
mp-558115,5.6221,SiO2
mp-560845,1.4091,Cu2As4S3Cl2
mp-550514,0.6714,LaTaN2O
mp-27403,0.261,LiUF5
mp-18710,1.0496,RbSm2Ag3Se5
mp-759341,0.3363,Li4Cu(PO3)6
mp-604,2.4206,Nb2O5
mp-849335,1.6489,Ti3N2O3
mp-27801,1.5639,TlAgI2
mp-703461,5.6079,GeH8N2OF6
mp-755210,1.5767,Y4Cu2O7
mp-531296,1.9832,Ge(PbS2)2
mp-554508,5.065,KYP2O7
mp-763535,0.9595,LiP5W3O19
mp-975958,2.2123,KNaMo(OF2)2
mp-29151,1.9433,Li5NCl2
mp-28110,0.547,Rb2PtI6
mp-753546,2.2925,Li8TiS6
mp-865120,2.9573,NaPaO3
mp-17803,1.1999,Nb2Tl4S11
mp-13774,4.4775,NaNdSiO4
mp-754415,2.5817,Tb3NbO7
mp-8962,1.9672,Rb2HgF4
mp-1019089,1.1621,KMgAs
mp-20716,2.9091,PbSeO3
mp-771185,2.9353,K2Ge2O5
mp-866302,4.822,BaNaP3H3(NO2)3
mp-561491,5.2115,KNaMg2Si4(O5F)2
mp-694979,2.3183,Na2TiFe(PO4)3
mp-560673,6.1559,NaPr2S2O8F3
mp-14972,3.4742,Ba3Sc(BO3)3
mp-504593,3.2437,Pb2CCl2O3
mp-559150,3.9694,Na9ZrP4ClO16
mp-40830,1.8648,NaSr3LaTi5O15
mp-680387,0.6184,PrYSi2O7
mp-3727,2.6468,Nd3NbO7
mp-849430,3.9039,Li8MnFe7(PO4)8
mp-540927,0.6321,UPCl10
mp-23418,1.9324,Hg3(SCl)2
mp-22220,4.4337,LaLuO3
mp-707182,2.5299,UAsH9O10
mp-559427,2.0717,BaSr4U3O14
mp-756160,3.3648,Er3TaO7
mp-555609,1.7884,Sr9Zn4(CuO7)2
mp-18754,0.2497,DyCrO4
mp-569608,3.0652,BP2N2Cl7
mp-7388,2.0495,NaAuF4
mp-35264,1.4638,Pr5AgSe8
mp-18203,3.6226,KGe2(PO4)3
mp-558943,2.2758,LiUAsO6
mp-3038,1.43,Al2HgSe4
mp-755109,4.5444,YErO3
mp-581143,0.5223,RuOF4
mp-5392,3.5077,Mg2SiO4
mp-777814,1.3577,Na6Sn2O7
mp-765917,1.842,LiV2OF5
mp-5478,1.0903,TlPd3O4
mp-779592,3.2446,GdOF
mp-571177,1.2572,Hg3Te2IBr
mp-19421,2.3952,FeWO4
mp-560158,4.2648,Na3Zn(BO2)5
mp-559115,1.4221,P2RhClF6
mp-849444,2.8459,Li2Ti2NiO6
mp-555838,3.6997,SnPO3F
mp-6948,2.1325,KNaO
mp-616587,4.8466,RbPO3
mp-698032,2.519,Na3H7Ru
mp-567431,3.6359,ThCl4
mp-18843,1.4702,Ca3FeRhO6
mp-757590,3.4943,LiSnPO4
mp-977455,0.9149,PaAgO3
mp-559587,0.7828,CuSb2BrO3
mp-561380,1.155,Ag2Te4O11
mp-558153,3.3536,Ba4Nb2(OF4)3
mp-568032,0.8688,Cd(InSe2)2
mp-28481,2.9099,Ti(ClO4)4
mp-667380,3.4487,Rb3Nd2(NO3)9
mp-26701,2.4807,Li3Sn2(PO4)3
mp-775679,0.6963,Li2Mn3CrO8
mp-976280,4.935,LiBr
mp-756347,1.4655,Y2Pt2O7
mp-780171,2.8622,HgH10N2Cl4O
mp-5338,3.9132,ZnSeO3
mp-3118,2.9128,Mg3TeO6
mp-12362,0.7093,AgHg3SbO6
mp-553923,1.0987,K2AgSbS4
mp-754869,3.8301,Sr(IO3)2
mp-776688,1.2168,V2O3
mp-567394,0.2075,Ga(MoSe2)4
mp-4434,5.5982,TbAlO3
mp-680679,0.9267,K2Ho4Cu4S9
mp-6384,4.1056,RbSO2F
mp-695963,2.5046,K2NaH10IO10
mp-773067,3.5103,Er3TaO7
mp-777550,3.6938,LiFeF4
mp-568570,0.6175,CsSnI3
mp-29102,2.2498,Hg3TeCl4
mp-19136,2.3655,TbFe3(BO3)4
mp-720430,5.4108,CaB3H7O9
mp-18823,1.0329,K2BaCo(NO2)6
mp-561187,4.3425,NdGa3(BO3)4
mp-23311,1.0458,EuBr2
mp-557904,1.555,SbSe2S(NF3)2
mp-754304,2.7805,BaYI5
mp-720254,5.8773,Li2H4(SO4)3
mp-15108,2.0724,RbSnAsO5
mp-680144,2.3419,CdI2
mp-29825,4.3281,K2Si2O5
mp-530149,1.9742,Ca12Al14O33
mp-560163,4.6781,Ca4Si2O7F2
mp-16848,2.2893,Tl3PS4
mp-776795,3.8401,BaYBr5
mp-6922,5.5311,SiO2
mp-570902,0.203,Pr6RuBr10
mp-554906,2.8035,Zn2BiPO6
mp-560544,1.6195,Ba3Zn5In2O11
mp-27636,0.2884,Cs2SnI6
mp-27264,0.2028,NaTiF4
mp-774848,3.9706,H10SeO8
mp-28772,1.6015,SbSCl9
mp-779309,1.1802,V4(OF3)3
mp-23717,5.3898,Ca2MgP2(H2O5)2
mp-12885,3.4259,BaAl2Sb2O7
mp-530217,5.4677,PrZr3F15
mp-553912,3.7453,NaZr2(AsO4)3
mp-774386,2.84,Li2Cr3P4(HO4)4
mp-22720,1.4694,RbSr2Nb3O10
mp-9248,1.2363,Cu2SiS3
mp-752686,3.4282,Sm3TaO7
mp-721426,5.114,NaPH7O6
mp-644332,2.6901,KMnF3
mp-570700,0.5162,Hf3Tl2(CuSe4)2
mp-7000,5.7211,SiO2
mp-696275,2.5506,SnH8(NCl3)2
mp-5226,3.5912,K2SeO4
mp-569754,1.4092,Ba7Sn3Se13
mp-752410,2.9627,Ba2GeO4
mp-504601,1.7129,Cs2ZnO2
mp-19765,0.5187,In2HgTe4
mp-14424,3.7946,Sr(AlS2)2
mp-556518,1.9067,K2Pd(NO3)4
mp-560328,1.2258,Ag15P4S16Cl3
mp-774557,3.013,Er2TeO6
mp-5061,2.1688,Li5ReO6
mp-643356,4.1758,SrH2Br2O
mp-555269,1.499,Ag3SbS3
mp-28671,1.1092,ZrTe2Br5
mp-28256,0.7208,V2Se9
mp-707929,3.351,LiBH2C4O9
mp-569766,0.7224,TeI
mp-757053,0.2793,LiNb(PO3)4
mp-772765,4.2632,K2PrPCO7
mp-8016,0.8932,AlCuSe2
mp-17217,0.6374,Tl3GeTe3
mp-17989,2.7739,K3PS4
mp-560216,4.1237,Cs2GeP4O13
mp-777731,3.8412,Ba6YBr15
mp-4326,2.385,KErS2
mp-867961,1.3265,Sb16Cl4O21
mp-558566,2.5862,Ba5Er2ZrAl2O13
mp-743878,2.07,Fe2Te4H3ClO12
mp-569779,0.2795,ScSbPd
mp-24292,2.2616,Sr2H6Ru
mp-23443,1.3888,MnTlI3
mp-1016108,2.3348,TiZnN2
mp-643458,5.9622,LiHSO4
mp-27576,4.127,Sc2GeO5
mp-23349,3.8384,Bi(BO2)3
mp-23944,5.2973,BaH6Cl2O11
mp-770607,2.3291,Li3VSi4(HO6)2
mp-765860,1.2323,Fe2CoO4
mp-675416,3.0111,Sr4Nb2O9
mp-19153,1.0159,Lu2Mn2O7
mp-685991,1.2765,Li5SiP3
mp-21526,0.3735,KPb
mp-4104,5.9066,HoPO4
mp-625850,3.1296,H7NO6
mp-753751,0.6331,LiAgF2
mp-27144,3.4619,TlPO3
mp-23396,1.6713,MoNCl3
mp-774736,1.6984,LiCuS
mp-561218,0,KP2Au5S8
mp-625509,4.4183,H3BrO
mp-9007,1.2845,Na6P4W
mp-18584,2.5658,Ho2SiSeO4
mp-28144,2.7077,SiBi2O5
mp-776432,0.2335,Na2LiCuPCO7
mp-570231,0.7105,CsCdBr3
mp-997033,0.7091,AuBrO2
mp-556869,2.5763,Sb5IO7
mp-554657,4.09,Na2Tl2B10O17
mp-558268,3.3861,Ca4Si6Pb6Cl2O21
mp-16267,1.0877,Dy2CdS4
mp-685036,3.2994,Al2O3
mp-767433,1.7404,LiV2OF5
mp-771906,1.5628,Li2AlCoO4
mp-764856,0,Li6MnV3(PO4)6
mp-675801,2.1642,KNbCl6
mp-755219,0.8862,ScTlO2
mp-770735,2.2721,ZnCrO4
mp-17708,3.0359,Ge3Sb2O9
mp-777480,1.4443,Li2Ti3MnO8
mp-850944,0.9565,Li21(Co4O9)2
mp-9868,0.4606,KCu3S2
mp-10288,0.4804,LaCuTeS
mp-763610,2.5476,LiCrSiO4
mp-18585,1.1648,RbAgSe4
mp-558849,1.9161,CdBiS2Cl
mp-3349,1.8405,Sr3Ti2O7
mp-772431,0.5598,CoH8(CO5)2
mp-40451,2.0437,NaGd3Ti2(SbO7)2
mp-753056,4.5447,HoBO3
mp-29164,0.3411,SrBiO3
mp-23487,2.8129,KIO3
mp-556418,3.9568,AlSCl3O2
mp-695951,2.4369,LiAg2P3(HO5)2
mp-625913,2.1805,TeHO3
mp-674531,0.5321,Li5GeP3