id,band_gap,pretty_formula
mp-770649,2.9339,Li5NbO5
mp-18946,1.7983,VBO3
mp-552537,2.3479,Sr2CuBrO2
mp-600015,5.6014,SiO2
mp-554935,1.8916,Pr8Sb2S15
mp-778866,2.997,Li4Mn3Fe(BO3)4
mp-1020009,4.7377,Li2Ca2Si2O7
mp-29364,2.914,Li5SbO5
mp-558760,0.552,SrZrS3
mp-775808,3.4114,MgO
mp-6766,4.9717,CaMg(SiO3)2
mp-555087,4.5484,Ba5Si(Cl3O2)2
mp-2605,3.6301,CaO
mp-676552,2.8268,Nd2Th8O19
mp-775155,2.9754,Li4FeOF5
mp-734561,1.084,Rb3P3(HO3)4
mp-13327,0.5007,NdLuSe3
mp-768373,3.8522,Ba2YBr7
mp-239,1.3727,BaS3
mp-557979,0.616,MnTl2As2S5
mp-14556,4.4709,SmCd(BO2)5
mp-2858,3.4737,ZrO2
mp-22930,3.9396,Rb4CdCl6
mp-755895,3.031,Ba3Zr2O7
mp-652364,3.9764,PNCl2
mp-17685,3.2659,Li3GaGeO5
mp-11625,5.0398,KCa(PO3)3
mp-6332,3.2153,Li2TiSiO5
mp-648179,0.8882,Cs3Mn3V4O16
mp-573204,4.9546,Cs2KBiF6
mp-756168,2.5366,Li2Nb4O11
mp-9912,0.8226,Li2CeP2
mp-768982,2.1263,Li7NbS6
mp-554817,3.1626,Ba3CaSb2O9
mp-556331,0.567,Sr4Pt4PbO11
mp-29473,2.0725,LiIO4
mp-554842,2.6812,Cs5Si3AgO9
mp-559384,4.4468,BaNaNdSi2O7
mp-754885,3.6192,SrCaI4
mp-704198,2.3044,LiMo2P3O13
mp-560626,4.8425,Ba2Ni7F18
mp-776271,1.7706,Zr2N2O
mp-761676,0,Li2Co3SbO8
mp-19240,0.2461,ErCrO4
mp-759877,0.6856,Li4CuF7
mp-556450,5.0608,PrB2ClO4
mp-10344,2.9682,Ba2PrNbO6
mp-27352,0.8523,Sr(Ag3O2)2
mp-769213,3.033,Dy2(SeO4)3
mp-997092,0.8944,AuClO2
mp-707540,4.3746,ZrP2(HO4)2
mp-769572,1.4125,LiAlVO4
mp-16137,2.1062,K4CaU3O12
mp-8194,0.5697,Ba2GeP2
mp-755368,1.7592,Zr2N2O
mp-866651,2.0549,KSiBiS4
mp-780454,3.7009,SrCa2I6
mp-643071,1.4719,Yb4Mg4Fe3H22
mp-14190,5.3095,NdPO4
mp-643036,4.2077,BaHBrO
mp-771364,1.9426,Li6CrSn3(PO4)6
mp-30192,1.4197,Pr4Se3O4
mp-556863,6.5801,Ba3AlF9
mp-674492,1.5897,Na2U2O7
mp-770365,0.3837,LiAlVO4
mp-753122,0.7822,Sr2CuH2(SeO3)4
mp-705884,2.327,LiFePHO5
mp-555003,5.3735,WF6
mp-40206,0,Ca2Nd2Nb3FeO14
mp-18740,2.5472,V2Cd2O7
mp-28464,0.8407,Re3(TeI)7
mp-3928,4.5287,Na5P3O10
mp-15844,3.8318,TaPO5
mp-556385,3.1474,Cs3ZnI4NO3
mp-22325,3.6665,P2Pb2O7
mp-553982,3.8045,K4In2Si8O21
mp-758253,4.2441,CaH12(IO6)2
mp-766021,3.4841,KH(IO3)2
mp-769551,0.9107,V9PO25
mp-680756,2.8289,Na4TiP2O9
mp-1019802,5.1797,KAl(PO3)4
mp-773176,2.9611,Li2CrAsCO7
mp-770507,1.1113,Li4Ti3Mn3(NiO8)2
mp-5960,2.1506,Ca3UO6
mp-555457,4.0117,Te2S(O2F3)2
mp-862664,1.7299,Rb2Zr2O5
mp-9821,4.8849,RbSbF6
mp-13038,3.9707,Dy2C(NO)2
mp-35033,1.1701,ZnFe5O8
mp-759985,3.4438,Bi3O2F5
mp-555746,1.2234,InAg3(PO4)2
mp-780232,2.0465,Hf2N2O
mp-542469,2.7806,Gd2Si2O7
mp-21099,4.4463,K2Pb(SO4)2
mp-546625,1.3684,HoBi2BrO4
mp-778338,0,Li4V2Co3Sn3O16
mp-764336,2.2259,Li4Mn3OF8
mp-722266,2.1312,Na2GeH16Se3O8
mp-540256,1.1557,NiPO4
mp-770598,3.0365,Li2CoH8(CO5)2
mp-557508,4.6572,NaLaH2S2O9
mp-30142,3.5725,Be4N6O19
mp-16031,0.234,Sn3N4
mp-11893,3.8956,K2Pd(CN)4
mp-763793,3.3624,Li2Mn3F8
mp-7205,3.0287,LiInSiO4
mp-705314,1.2774,Li3V3P8O29
mp-585516,4.6199,Ca3Si2O7
mp-554636,2.7369,Gd2B(OF)3
mp-23715,2.8372,BaH2
mp-29084,2.4275,Ba2GdCl7
mp-627442,2.6785,Ge7H18O23
mp-761990,2.574,LiNiPO4
mp-769565,2.1701,Na2VPCO7
mp-782035,4.6624,Al2O3
mp-558026,1.4032,SbSe(IF2)3
mp-3954,2.2849,PrPS4
mp-780297,2.6582,Li3Mn2Fe(BO3)3
mp-14854,3.766,Sr2LiIn(B2O5)2
mp-771389,0.9148,Li2V3BiO8
mp-768745,5.4604,HfP2O7
mp-763252,2.7398,LiSbWO6
mp-560300,1.7597,Nd3CuSnS7
mp-17256,6.2801,Rb2Hf3OF12
mp-7906,2.0046,Al2HgS4
mp-4627,0.8205,CoAsS
mp-776068,1.3653,LiVCrO4
mp-669333,4.5042,Ba5Si8O21
mp-19428,3.4015,K2RbTbV2O8
mp-557798,6.4524,K5Li2NdF10
mp-34185,2.062,Ca(PrS2)2
mp-667305,2.6214,ReN(OF2)3
mp-557403,1.7062,LiFe2F6
mp-17516,3.7475,Ca10P6SeO24
mp-707470,5.4938,Na2H4(SO4)3
mp-756354,2.7725,SrSc2O4
mp-552738,1.4259,TmBi2IO4
mp-705356,2.4488,Li2Fe(PO3)5
mp-643023,0.8978,Mg2H4Ru
mp-19075,3.0368,K2SrV4O12
mp-558350,3.2936,Zn2TeBr2O3
mp-557696,4.7752,Na5Y4Si4O16F
mp-35799,2.771,Hf2Bi2O7
mp-19342,1.3331,WO3
mp-865203,1.5987,YCuPbS3
mp-998612,2.9598,KGeBr3
mp-6501,3.0589,BaHo2ZnO5
mp-30214,4.0701,SbIF10
mp-568514,2.9132,BPBr2NCl3
mp-781009,2.8061,Li3Cr(PO4)2
mp-768507,0.3363,Cu2(SO4)3
mp-775130,0.4985,Li2CrO3
mp-17838,6.9561,KTb3F10
mp-766340,3.8212,Ba2CaI6
mp-723540,4.1699,K6BiH3(Cl2F)4
mp-3666,3.7004,LiTaO3
mp-19970,1.1912,Li3CuO3
mp-22184,2.857,Ba2SmNbO6
mp-645272,2.305,TlV3(SeO6)2
mp-30962,3.0671,K4Ge9O20
mp-643009,2.7374,SrMgH4
mp-695887,0.3303,K3Cu2P4HO14
mp-760729,3.5114,Ca2Ga2Si(HO4)2
mp-6182,1.2065,CsTb2Cu3Se5
mp-5518,0.2484,GaAgSe2
mp-651847,2.8259,GdGaGe2O7
mp-9366,2.3503,RbHoS2
mp-773894,5.3582,CaB2(H2O3)2
mp-698063,5.1997,Na2P2H2O7
mp-20470,2.9035,Gd2O3
mp-997016,0.8638,AgClO2
mp-571490,2.3942,Pr3CCl5
mp-762236,3.3738,Al3CrO6
mp-541430,1.2078,BaLaCuSe3
mp-768469,2.9241,TmGaO3
mp-28974,4.166,TiF4
mp-769536,0.4627,Na5Mn2P2(CO7)2
mp-505364,3.2768,CdPH6NO5
mp-707985,3.177,K3Na3TeP6(HO4)6
mp-30216,0.8526,K2ReI6
mp-532059,1.0893,Er2CdS4
mp-685097,4.3608,HfO2
mp-23058,4.7664,NdClO
mp-776362,1.5773,Zr2N2O
mp-19517,1.4894,KVPO5
mp-559571,3.7797,ZrB2O5
mp-775252,3.0354,Li8Mn3Fe5(BO3)8
mp-570535,2.0089,NiH20(C4N5)2
mp-29331,7.3637,KH3F4
mp-650124,1.3687,K2Rb2Re6S13
mp-774423,0.5346,V3Cu(PO4)6
mp-14026,2.2955,Ca2Ta2O7
mp-777665,3.596,Li2FeF4
mp-558475,1.5316,K4Nb2S10O
mp-24413,2.8483,Na2LiAlH6
mp-698317,3.2944,NdH4C3O8
mp-7374,1.3793,Ba(CuO)2
mp-704577,2.7519,Na2Co2(B4O7)3
mp-17512,1.7088,Zn(AuF4)2
mp-675511,2.0712,Sm2PbS4
mp-27437,3.1801,Zr(IO3)4
mp-568031,0.8055,GaHg2SbCl4
mp-8230,4.6576,Zn(PO3)2
mp-542812,1.0626,GaTe
mp-720856,2.1995,KCa(H2N)3
mp-20526,1.7396,PbS
mp-23950,5.0297,K(BH)3
mp-558192,5.1469,NaPO3
mp-9186,3.0881,CdSeO3
mp-8257,2.3678,Na2ZnS2
mp-531778,3.1114,Mg17(As3O16)2
mp-38975,5.1356,PNO
mp-541141,1.993,K3IrCl6
mp-764872,2.8758,Li5Fe7O3F13
mp-622195,5.1506,CsSO3F
mp-778306,0.1181,Na4Fe2C4SO16
mp-1020057,3.7431,LiLaO2
mp-626647,1.4854,TlHO
mp-13002,7.1895,K2SiF6
mp-559377,3.628,IOF3
mp-766429,4.997,SiH18C2N8(OF3)2
mp-4026,1.0662,KCrS2
mp-14017,0.3938,K3Sb
mp-27111,3.1104,Li3Sb3(PO4)4
mp-26745,3.3233,LiSbP2O7
mp-554336,1.6227,NbAg2(PS4)2
mp-29186,0.8991,La(SiP3)2
mp-569149,2.5686,K2TeCl6
mp-770481,2.7058,Ta9PO25
mp-761992,3.1661,Li2Fe2(CO3)3
mp-683616,2.4695,Li5Ti7In(PO4)12
mp-28364,1.3087,Rb2CdO2
mp-560278,5.351,Er3B5O12
mp-554540,2.2249,Li5ReO6
mp-540356,2.502,LiFe(PO3)4
mp-19046,2.07,KMnO4
mp-504669,2.7061,KBiF6
mp-5214,2.7279,TiTe3O8
mp-867533,2.299,LiSn3Sb(PO4)6
mp-709885,4.0899,Rb4LiH3(SO4)4
mp-19022,0.3275,Na4FeO4
mp-744751,2.8948,NaMn6Al3H42(SO19)2
mp-31031,0.3991,La4PdO7
mp-4425,0.6803,Ta2Pt3Se8
mp-7191,0.5667,Sr3GaN3
mp-555079,2.02,ZnS
mp-23209,5.2286,SrCl2
mp-17747,1.4826,Y3CuSnS7
mp-640341,1.6678,Mo3S7Cl4
mp-560976,4.3483,KNiF3
mp-776644,1.2101,Ti3Mn3(SnO8)2
mp-3078,0.4009,CdSiAs2
mp-556091,1.6883,Cs3Ta2S11
mp-672338,0.3834,Cs(Bi2Te3)2
mp-697749,1.4055,LiV2(PO4)3
mp-14206,1.2603,K3Ag3As2
mp-17400,2.0196,Ba2TaN3
mp-777700,2.7723,LiFeF4
mp-765857,2.9545,LiCr(SiO3)2
mp-667363,5.389,AlPO4
mp-10931,1.2996,HoSF
mp-556647,2.5312,Ba5Re3ClO15
mp-30251,2.6862,YAuO2
mp-35787,2.1666,Ca(DyS2)2
mp-769171,2.8185,SiGeO3
mp-1016873,3.6765,CaHfO3
mp-644492,3.3728,LuNbO4
mp-23713,3.0081,CaH2
mp-10733,3.9472,Sm2O3
mp-699445,4.9134,K2P2H2O7
mp-504570,1.9437,K3FeO3
mp-560937,3.8343,Na3Si3SnO9F
mp-613620,0.5692,Rh2O3
mp-3872,3.0647,Mg(AlS2)2
mp-989624,0.5514,TiPN3
mp-570817,1.3439,Cu2P8Se3I2
mp-571544,0.8942,KTiPSe5
mp-778681,0.8202,V3SnO8
mp-27172,3.4584,Cs3In2Cl9
mp-771957,2.6067,Ta2PbO6
mp-27271,2.218,Tl8Ge5O14
mp-778241,2.2001,Li2V3F8
mp-555741,1.7035,RbAu(SO4)2
mp-3054,5.0446,Li2CO3
mp-625359,4.1593,NdHO2
mp-5308,2.7516,LaTa3O9
mp-28040,5.7442,Hf(BH4)4
mp-29044,1.1297,Cd4Sb2I3
mp-697331,1.527,Mg2NiH4
mp-1019549,4.5585,BaMg2Si2O7
mp-770961,0.6775,Li2TiMn2O5
mp-782642,0.4779,LiMn2(BO3)2
mp-755634,1.2172,Y2HgO4
mp-722330,3.5098,Li3La2H6(N3O10)3
mp-761971,1.3137,LiLaNb4O12
mp-772228,4.3777,CdP4O11
mp-556454,5.5652,SiO2
mp-531590,4.4761,SrAl22O34
mp-8570,0.8302,Ba3Zr2S7
mp-8884,1.1007,ZnTe
mp-8966,0.8472,K2Sn2Se5
mp-560209,5.3494,Li9Al3P8O29
mp-699464,5.0047,Ca3Be2Si3(HO6)2
mp-14023,6.8685,Na3Li3Sc2F12
mp-10175,3.1252,KCdF3
mp-4917,3.9925,LaAsO4
mp-567224,1.9371,Mg(SiB6)2
mp-772099,0.3207,Cd(CuO2)2
mp-771267,1.4004,LiZnFe7O12
mp-754902,3.9919,LiSbCSO7
mp-16755,2.015,Mg(AlS2)2
mp-9794,1.4778,Rb2GeSe3
mp-770151,2.3718,Li2VBO4
mp-780147,0.9995,LiMnSiO4
mp-540204,0.5155,Co2P3O10
mp-771774,3.0974,Na2SiSnCO7
mp-9107,0.548,NaZrCuS3
mp-6567,5.7997,LiNd(PO3)4
mp-17887,3.3218,SnP2O7
mp-560266,3.8686,Na3B5SO8
mp-550820,1.293,SmZnPO
mp-11604,0.9451,KSm2CuS4
mp-771386,2.6343,VBO4
mp-770404,1.7987,Li4V2Si(PO6)2
mp-996985,1.2848,HAuO2
mp-764201,1.253,Li2V3O3F5
mp-779260,2.5002,Gd3SbO7
mp-556247,1.3945,Dy3S3N
mp-37014,2.323,GdPaO4
mp-18720,0.8878,Mn2CdO4
mp-766217,0.7851,Sr4Cu2O7
mp-23465,2.7991,Cs2TeCl6
mp-781707,4.4852,La4Al2O9
mp-721299,5.1251,H13S2N3O8
mp-866830,1.0141,Ca3SnS5
mp-772080,2.5826,BaLaI5
mp-6653,2.8512,Ba2ErNbO6
mp-989625,0.9955,SrWN3
mp-17972,0.8812,Zn2Hg2OF6
mp-755463,2.1066,Li3SbS3
mp-9781,2.1699,K3SbS4
mp-18656,3.3927,GdGaO3
mp-19312,2.2149,BaTb2NiO5
mp-779147,5.4866,Ho2P4O13
mp-649334,1.3815,FeSCl7
mp-4524,1.1894,ZnGeP2
mp-777553,3.3563,LiFeF4
mp-740740,4.1654,Na2ZnP(H5O4)3
mp-754636,2.4821,ErBiO3
mp-505312,0.6779,Sr2FeCuSO3
mp-768042,2.4521,Na2FePCO7
mp-35751,5.781,Zn(CN)2
mp-758925,2.9933,Na6Zn3As4H6O19
mp-9897,0.1682,Te3As2
mp-557346,2.0266,ZnS
mp-758269,0.7216,Ba8In6O17
mp-705001,3.0924,LiCrP2O7
mp-6233,0.4965,NaSr3RuO6
mp-19521,3.7586,Al2(MoO4)3
mp-542734,0.6208,Rh2O3
mp-772672,1.3528,Sm2V2O7
mp-756648,3.611,LiNdO2
mp-18010,0.663,Ta2Pd3Se8
mp-772036,3.1646,YTa7O19
mp-561235,4.5981,AsCSF11
mp-6741,5.0932,NaLa(PO3)4
mp-775842,2.048,Bi24B2O39
mp-36539,0.7743,KBiSe2
mp-768570,3.3417,Sr2CaI6
mp-780853,3.285,LiFe3P3(HO6)2
mp-686588,2.5018,RbNa10Al11Si13O48
mp-3142,3.6222,Ca(NO3)2
mp-865972,1.0593,KTm2Cu3Se5
mp-777449,0.3076,Li4V5SnO12
mp-866311,0.9164,Bi3BrO4
mp-753802,3.5663,Sc2Ti2O7
mp-849461,0.5366,Na3MnO3
mp-635020,2.3603,Cs6Bi4O9
mp-5558,3.6111,NaReO4
mp-774100,3.947,Dy29Y3O48
mp-23723,5.3784,K2CaH2S2O9
mp-19358,1.1011,SmMn2O5
mp-31249,3.3419,La2Te4O11
mp-771112,1.322,Li2Mn3NiO8
mp-697078,5.1811,Cs2SiP4(HO7)2
mp-1019808,4.8329,KBe2B3O7
mp-977351,3.0309,Ac2S3
mp-16061,1.7427,Sr6Sb6S17
mp-681439,4.2315,LiZr2(PO4)3
mp-4124,3.5804,CaCN2
mp-763934,0.8106,Mn3OF5
mp-16585,2.5834,HgB4O7
mp-867889,2.708,KNaGdTaO5
mp-771365,1.1804,Li24Ti5Cr7O36
mp-812,3.9498,Ho2O3
mp-510624,0,SrFeO3
mp-690490,0.9926,TiVO4
mp-558946,1.3195,BaSbSe2F
mp-698722,0.4278,Ca5Yb3Ti5Mn3O24
mp-768974,4.2205,BaY3Cl11
mp-560217,4.595,K2Al2B2O7
mp-30520,1.6707,Tl2S5
mp-1004528,6.3125,CsB3PbF12
mp-770360,2.3277,Li2AlVO4
mp-23499,2.4635,K2SnCl6
mp-557364,5.4624,CdB2F8
mp-27369,3.7888,RbGeCl3
mp-16036,1.1812,Tb2TeO2
mp-774233,2.3412,Co(IO3)2
mp-9509,1.5728,K2PAuS4
mp-13743,2.6215,K3GaO3
mp-754381,0.5694,Zr3N4
mp-676074,6.5873,Na2ThF6
mp-672273,3.7417,AlBiCl6
mp-8719,0.8461,K2MnTe2
mp-570583,2.4877,P4N3Cl11
mp-22978,1.3453,Rb2MnCl4
mp-28037,0.9846,Mo2SBr2
mp-652046,1.6208,Re3S4Br
mp-30532,2.9405,Tl2ZnI4
mp-674972,3.1415,Rb6Pb5Cl16
mp-8678,5.4295,NaAlPO4F
mp-625894,0.2533,Ba(H2O3)2
mp-12368,2.6723,SbS2NF6
mp-754246,1.1016,TiSnO3
mp-23675,4.3117,H4BrN
mp-742819,2.8634,MoH12Pd(NO)4
mp-30023,5.3836,Ba(AlCl4)2
mp-573114,1.0611,Gd3CuGeS7
mp-624000,0.2212,Re(Te4Cl3)2
mp-684104,3.2937,LiSb2P5O16
mp-17366,2.6339,Ho2SiSO4
mp-3335,2.7423,Sm2Ti2O7
mp-673156,0.4049,Li2NbP4O13
mp-553936,1.7469,K2Ag4Pd3(NO2)12
mp-768320,1.9309,LiLa5Ti8O24
mp-556699,5.5799,Na2PHO3
mp-849748,6.4413,NaMgP3(H4O5)2
mp-674508,3.8135,RbPbF3
mp-760396,2.5859,TaAlO4
mp-19467,1.5722,AgMo3P3O16
mp-14983,1.4358,Si4P4Ru
mp-703297,5.2918,H7S(NO2)2
mp-20289,1.8553,NaInS2
mp-849802,2.9089,Ba2YI7
mp-764977,2.4876,Li2FeOF3
mp-559103,4.8343,Na7Y2P7O24
mp-16432,4.3938,Sr3(BO3)2
mp-765585,0.3714,Ca3Tl4O9
mp-27250,3.4146,CsTcO4
mp-684493,3.6416,LiSn2P3O10
mp-23797,5.2941,LiH6ClO7
mp-4736,5.3904,NdP5O14
mp-19290,1.2489,Mn2As2O7
mp-585963,1.0746,Rb7Th2(P2Se7)3
mp-706525,5.4866,NaAl3P2(HO3)4
mp-560004,1.9767,Na2USiO6
mp-761190,0.4722,LiCu(PO3)3
mp-24447,0.8114,FeCoH18(NCl)6
mp-676937,0.3305,Ta8Pb6O25
mp-27451,3.0874,Tl3PbBr5
mp-626703,2.5083,CrHO2
mp-541857,4.4271,GaP(H2O3)2
mp-1001112,3.7708,Na2H3CO6
mp-556843,3.8836,NdAsO4
mp-560620,3.8216,BaZr(PO4)2
mp-7642,1.0794,K2AgAs
mp-683984,1.105,Al(SeCl)4
mp-704459,2.5253,Na2Cr2O7
mp-779070,4.3029,Li2NiP2O7
mp-555546,2.8781,MgAs2(XeF5)4
mp-773160,2.5022,LiCrCSO7
mp-866066,1.5242,B2S3
mp-510011,1.1848,La3CuGeSe7
mp-758635,2.203,UH12S2O15
mp-33018,0.4341,Rb3Sb
mp-541689,1.1676,Na7In3Se8
mp-10165,1.7045,KAlTe2
mp-7064,4.7942,Er2Si2O7
mp-849512,0.643,Na7V2O6
mp-14175,2.6072,K3NbO8
mp-772590,1.9205,Li6V2B4SO16
mp-849423,0.5221,Li2MnVP2(HO5)2
mp-11123,1.3946,CsYHgSe3
mp-774922,3.1188,Ti3TeO8
mp-755556,2.693,Ba6ZrO8
mp-559160,3.3052,NaSmSe2O7
mp-754992,1.2674,LuTlO2
mp-33526,0.807,LiBiS2
mp-551675,0.3831,Li3UO4
mp-777680,2.4474,Li2VF5
mp-19416,2.2452,BaDy2NiO5
mp-560445,3.7705,SrEr2O4
mp-766173,1.3205,Sr(RhO2)2
mp-555229,5.0167,H5CNO2
mp-1020797,5.6193,Y(PO3)3
mp-3857,5.1531,Ba3(PO4)2
mp-558893,4.4408,SbCSF11
mp-32027,3.4809,Li2Mn3(P2O7)2
mp-409,0.8685,NaS
mp-698457,4.6147,NaLiH4C2O5
mp-759416,3.1144,Li3Sb(PO4)2
mp-504801,3.9829,ErHO2
mp-5692,0.8724,TbRhO3
mp-29144,4.5111,KTe2F9
mp-849529,4.2456,MnH12S2(NO5)2
mp-1012835,1.4526,SmCu(WO4)2
mp-505697,3.3371,Bi6P4PbO20
mp-758891,0.2363,Li3CuPO5
mp-752684,2.9027,BaTm2O4
mp-510055,0,Co2B2O5
mp-23214,5.395,CaCl2
mp-553890,0.9501,CuSb2H12(O3F4)2
mp-569952,2.0525,K2CuCl3
mp-4681,2.3639,NaNbO3
mp-35687,5.91,Be(CN)2
mp-554218,2.7832,Ti4P6PbO24
mp-867332,0.9726,Cs2Mn(PSe3)2
mp-9348,6.5168,KRb2ScF6
mp-4086,2.6649,La2Sn2O7
mp-559223,3.0598,GdH6C4NO9
mp-849286,2.8999,Ba(GaS2)2
mp-17123,0.6658,Si2Os
mp-15919,2.6505,BeAgPO4
mp-557259,4.1644,MoF6
mp-557941,3.9366,K4AsH5S3O16
mp-2589,3.7324,MgO2
mp-15960,4.662,Li5AlO4
mp-770473,2.0892,CaLaI5
mp-541656,0.894,AuCl2
mp-540850,6.3698,TlPF6
mp-5168,0.334,AlSiP3
mp-690534,0.7139,K3FeF3
mp-778924,2.0896,ZnSeO4
mp-29833,3.3919,Bi2(SeO3)3
mp-18994,2.2208,CsMnO4
mp-775203,2.7353,Li8ScFe7(SiO3)16
mp-17464,3.387,SrGeO3
mp-567474,0.2963,Li2CrCl4
mp-19487,4.1325,Ba2Mn(PO4)2
mp-677072,0.767,Ca(InTe2)2
mp-677081,1.5086,SrLa11Mg3Ga9O34
mp-765753,1.9225,NaMnO4
mp-707938,5.1557,MgH18C4SN8O9
mp-771240,4.92,La2P4O13
mp-1508,0.6342,LaS2
mp-721330,2.0598,Rb14Na3Al17Si31O96
mp-643905,2.3441,Sr(H2N)2
mp-760781,0.5532,Li2AgF4
mp-28420,4.3448,SrH4O3
mp-998603,2.828,RbPbBr3
mp-27698,1.934,Y6UO12
mp-570140,1.9716,AuBr
mp-7305,5.8965,SmZrF7
mp-758861,2.6448,Li3AgF4
mp-555487,0.8384,SnO2
mp-23256,0.9011,BCl
mp-559768,2.8256,La2Ti2O7
mp-677732,1.3908,NdTi2CdO6F
mp-17830,0.9514,Rb3Ge4Au
mp-769201,0.3752,LiCuHCO4
mp-764414,0.4063,K2Li2NiO4
mp-14691,5.5376,NaEr(PO3)4
mp-756313,3.0673,CaPbI4
mp-26649,4.0616,Li2SnP2O7
mp-1020361,4.5708,MgSiO3
mp-706444,3.7118,Zn3P2(H2O3)4
mp-17959,1.7859,Nd2SiTeO4
mp-753737,1.981,Li3CuS2
mp-22786,0.2845,ThNiSn
mp-989627,1.5638,SrTcN3
mp-16921,0.6434,KNa4GeAs3
mp-774276,0.931,Li2Cr3SnO8
mp-558597,7.3039,NaLiY2F8
mp-704626,1.9093,FeAg(SeO3)2
mp-689963,2.0444,CrPO4
mp-757220,5.3849,LuH6(ClO5)3
mp-19114,3.3003,Ca2NiWO6
mp-560198,2.9727,ZnTe6O13
mp-28027,5.3681,AsF3
mp-557330,5.3413,Sr2B5ClO9
mp-22963,2.3386,K2TeBr6
mp-558149,8.1387,BF3
mp-13811,2.0589,Ba2MgUO6
mp-755949,3.2909,Ca4I6O
mp-14791,0.3988,Ge2Te5As2
mp-997588,3.5096,La8Al7BO24
mp-20496,3.4441,Ga2PbO4
mp-779249,2.5618,Gd3TaO7
mp-17048,1.9937,Rb2WS4
mp-6119,2.06,Na2Nd2Ti3O10
mp-657344,4.6836,Na12B26O45
mp-1020014,5.5447,Li3B11O18
mp-779462,1.9977,Sb2(SeO4)3
mp-1367,0.2361,Mg2Si
mp-19447,3.9517,Cs2NaVO4
mp-778744,3.0255,Li2MnNi(PO4)2
mp-771031,3.274,Lu2TiO5
mp-9843,1.3377,Sr3(AlP2)2
mp-19225,1.1363,FeAgO2
mp-768990,2.3275,Li7NbS6
mp-685168,6.5396,BeF2
mp-639558,5.7058,SiO2
mp-562541,1.4562,Cs2Na3TlO4
mp-24052,1.8697,CaMgNiH4
mp-773252,0.3897,Li2(NiO2)3
mp-754597,0.6919,LuTlO3
mp-571235,2.0148,ZrI4
mp-706225,1.5642,Sr3LaMn2(WO6)2
mp-29466,0.2428,CeSi3N5
mp-559748,2.8651,NdGaGe2O7
mp-754224,3.7641,BaSr2I6
mp-626197,3.5178,Sr(H8O5)2
mp-541667,0.9945,Nb(SeBr)2
mp-554883,4.91,Al(HO)3
mp-776509,1.9042,Sr2Ti6N2O11
mp-762019,1.9881,LiV(CO3)2
mp-560901,0.9775,PdSCl
mp-11713,2.0014,SiC
mp-28218,3.2929,TlCdCl3
mp-1019530,5.1483,Ba2P2O7
mp-850981,1.9614,V6O5F19
mp-567776,0.7554,Cs2AgAuCl6
mp-8313,3.4747,Cs2Li2GeO4
mp-765142,1.5072,LiCoSiO4
mp-6198,3.8808,SrGa2(SiO4)2
mp-7980,3.3709,Ba3SrTa2O9
mp-754031,3.6598,YBrO
mp-557158,2.5879,CrMoF6
mp-557176,4.5126,Ba5B4(O5F)2
mp-561154,4.1988,La(BO2)3
mp-998745,3.9392,TlZnF3
mp-561181,5.6131,SiO2
mp-769397,4.9815,MgSO3
mp-763433,3.7437,Li2MnF4
mp-541204,2.2041,As2S3(NF6)2
mp-560638,2.0752,Na2U2Si(O4F)2
mp-776770,0.4247,LiFeF5
mp-555014,1.3174,Rb2MnF5
mp-770883,0.8342,K4Co2O5
mp-14214,1.0893,Ba4SiP4
mp-772170,2.1489,CaLaI5
mp-772673,3.3278,LiNiPO4
mp-1019968,4.7136,LaZn(BO2)5
mp-569859,0.3715,MnTl2SnTe4
mp-1020144,4.9833,Na2Be4B4O11
mp-557637,2.3228,Hg2SeO3
mp-779472,1.9946,Li5Cu(PO4)2
mp-985572,2.5111,LiAg(CO2)2
mp-558500,1.4068,K2Ag2GeS4
mp-695043,3.7669,K4PH5Se3O16
mp-554252,3.9909,K2NaCrF6
mp-850949,0.8966,LiMnSiO4
mp-707840,4.602,Na2Si(H5O4)2
mp-19083,3.2298,NaVO3
mp-554259,3.003,SrAgB7O12
mp-560889,4.1718,Ba6Na2Si4O15
mp-971662,1.3167,Si
mp-761944,0.2015,Li2FeCo3O8
mp-3870,2.684,Sr2Nb2O7
mp-649683,4.2834,Fe(PO3)2
mp-23125,0.7837,K3NaFeCl6
mp-1019559,4.6914,Ca2B2O5
mp-777448,2.6698,Li2VF4
mp-8280,1.081,Ba(MgAs)2
mp-553948,1.6725,Tl4Hg3Sb2(As2S5)4
mp-604304,1.9933,HgH16(Br3N2)2
mp-554847,2.2525,SbP(Cl3O)2
mp-756084,1.583,BaNa4O3
mp-1509,0.7763,Sn2S3
mp-29590,1.927,Sn2OF5
mp-554351,1.6542,SrHg2(ClO)2
mp-14977,4.5279,Na3Y(Si2O5)3
mp-558022,5.3837,SrBPO5
mp-771136,3.8112,Ho2(SeO4)3
mp-600061,5.6122,SiO2
mp-18875,3.6809,MgWO4
mp-567628,4.186,Rb2LiDyBr6
mp-684617,0.9692,Bi2O3
mp-774868,4.6271,ZnP4O11
mp-756117,2.3234,Li2TiTeO6
mp-778377,6.0953,Ba5Y3F19
mp-652695,0.9044,Re(SeCl6)2
mp-773516,1.417,Li3NiO3
mp-542012,1.9401,Rb4Hf3S14
mp-504811,0.9863,Rb2Pb4O7
mp-12309,6.9181,Cs2NaAl3F12
mp-764484,1.3442,LiMnV(P2O7)2
mp-755948,2.9377,Tm2TiO5
mp-694933,1.6853,MgTi3Pb5WO15
mp-10780,1.899,RbSmSe2
mp-770525,3.8957,Na6Mn2C4SO16
mp-27341,5.9407,BH4N
mp-758332,2.8515,CaGd4O7
mp-510535,5.897,CsB5O8
mp-6764,3.0105,BaSi2(NO)2
mp-707138,1.3238,Ag2PHO4
mp-772843,5.168,KSiPCO7
mp-1019796,3.7409,K4P2O7
mp-8291,4.3189,BaTiF6
mp-779641,0.4395,LiCu5(PO4)2
mp-18764,3.2569,Ba2SrWO6
mp-23043,3.045,RbPb2Br5
mp-14316,3.4507,KPr(SeO4)2
mp-558227,2.9652,K2RbMn2F7
mp-867261,4.1259,RbSrCO3F
mp-555408,2.0004,SbS7IF6
mp-643253,1.7632,Ba2H6Pt
mp-637582,1.6897,Rb2BaPt2(CN)8
mp-9209,3.6947,In2(SO4)3
mp-30209,6.8124,LiBH4
mp-6671,2.5838,Sm4Si2S3O7
mp-780118,0.7638,Na4Ni2O5
mp-867649,0.5336,LiTi(Si2O5)2
mp-849472,1.9252,Li5Co7O3F13
mp-5496,1.4427,Al5C3N
mp-10615,0.6982,BaLiP
mp-542148,3.9604,Sb2N5F11
mp-27322,2.5801,Nb2Te3O11
mp-694856,0.7319,V2Bi8O17
mp-707392,5.0287,Mg3B2P2(H9O10)2
mp-1002124,0.3221,HfC
mp-19520,3.8165,NdNi(BO2)5
mp-754345,2.3951,LiTaO3
mp-19251,2.9787,RbLiCrO4
mp-755401,1.3658,Na3CuO2
mp-2940,5.9558,LuPO4
mp-754459,1.7642,BCl(OF2)2
mp-32826,1.9093,Dy2S3
mp-624218,2.6123,P3SN4Cl5O
mp-559417,4.1509,LaB2ClO4
mp-779533,2.2906,Ba3(BrO)2
mp-643651,3.2911,Rb3ZnH5
mp-753197,2.826,HfTiO4
mp-779906,3.5537,Ca3WO6
mp-638731,3.9568,LaCO3F
mp-774702,1.3761,Li3BiO4
mp-600004,5.4296,SiO2
mp-653062,0.9251,Mo2Cl8O
mp-28355,1.6657,Na4Ge2Se5
mp-674298,2.2584,Al22CdO34
mp-560228,3.4542,K6Ti2O7
mp-562100,0.3568,NbS3
mp-754240,3.8461,CaSm2O4
mp-559460,3.2907,Cs2Ti(Si2O5)3
mp-15559,0,KSb5S8
mp-561321,2.2257,AsSeS2N2ClF6
mp-706504,3.6858,Li2W2O7
mp-24381,5.2183,H5ClO2
mp-643397,1.1199,H8Pd(NCl3)2
mp-4995,2.1379,LiSbO3
mp-16293,1.1283,KSbO3
mp-697853,2.559,Ba3WO6
mp-542385,2.2683,K2MnH4(SeO5)2
mp-34293,2.145,CsTaN2
mp-775187,1.3583,LiFe8(BO3)8
mp-570485,0.6421,SrAlSiH
mp-9167,3.6025,SrCN2
mp-1013730,1.7229,Cd5(S2Cl)2
mp-6949,4.0073,InF3
mp-12384,2.5453,NaEr(PS3)2
mp-35308,2.546,CuCN
mp-29505,3.0622,Cs3BiO3
mp-555467,5.4246,Sr2AlCO3F5
mp-19377,1.5829,LiLa2MoO6
mp-10485,0.7059,BaLiSb
mp-505297,0.3749,NbSbRu
mp-556528,1.0698,In4GeS4
mp-754146,2.0568,Rb3YO3
mp-626267,3.8401,Ca(H8O5)2
mp-777900,4.0707,Li3FeF6
mp-559128,3.8466,CaTeCO5
mp-754837,2.264,Hf2N2O
mp-998197,4.9669,RbCaCl3
mp-5207,5.1542,Sc(PO3)3
mp-334,6.0452,LaF3
mp-3203,3.9284,NdTaO4
mp-781015,3.1375,La2WO6
mp-554379,2.025,AsXeF11
mp-696189,1.8545,TlH6(NO4)3
mp-962057,0.4545,SrCaSi
mp-23195,1.6582,Bi2O3