id,formation_energy_per_atom,pretty_formula
mp-28432,-0.637453411,Tl3Cd2I7
mp-568719,-0.373398245,SmInAg2
mp-581738,-0.95301562,Cs3BiSe3
mp-38117,-0.78273936,Ba(GaTe2)2
mp-865184,-0.732402281,LiScPd2
mp-975284,-1.202942985,RbIrO3
mp-1065,-1.269712729,LaSb
mp-755678,-1.483001184,Ca(LaI4)2
mp-763920,-1.986967146,Li6Fe5CoO12
mp-755084,-1.71633365,Na6MgO4
mp-27185,-4.438797557,KTh6F25
mp-645953,-1.625059557,Fe5Te6(ClO9)2
mp-1019591,-3.888507629,Ce3ZrO8
mp-720670,-1.230129709,Na10Zn7Sn7H24(S13O6)2
mp-541657,-1.529750541,BaH2N2O5
mp-865193,-0.095759958,Co3Pt
mp-771281,-2.718831063,Li5V4(PO4)6
mp-17679,-2.836153914,RbNb(PO4)2
mp-31763,-2.605304,Ca2FeReO6
mp-675383,-1.181752241,Li3(Mo3S4)2
mp-769483,-1.941852708,Li11(CoO4)2
mp-763943,-2.749221729,V6O7F5
mp-560653,-2.629471853,RbNaLi6(SiO4)2
mp-13775,-3.649792651,Gd2Si2O7
mp-764189,-3.034393054,Li3Mn2F7
mp-28717,-0.518579262,Cu6As4S9
mp-27317,-2.579299376,SbAsF8
mp-21269,-0.250676362,U2AlCo2
mp-22412,-0.234449508,Ba(MnGe)2
mp-782005,-2.089780054,Li6TeO6
mp-553916,-1.139849755,ZnS
mp-695505,-2.949476375,K2LiNb6(PO8)3
mp-560308,-3.283327046,BaZr4(PO4)6
mp-763359,-1.8754078,LiCr2CoO6
mp-37498,-1.266913256,Li5NCl2
mp-24302,-2.400422433,CdAs2HF13
mp-704988,-2.237378136,Ni2(PO3)5
mp-7423,-3.300106895,Sm3ReO8
mp-9919,-0.365663815,LiZnSb
mp-28768,-0.914773238,Na4SnSe4
mp-754967,-2.270056095,BaTeO4
mp-973655,-2.736458734,LuSiO3
mp-770717,-2.445777666,Na2VPCO7
mp-1912,-0.035117666,ZnAg
mp-640444,-0.535964313,Tb5NiPb3
mp-1344,-1.833772343,Sm3Se4
mp-31456,-0.54421902,HfSbRu
mp-769322,-2.430088629,MgSO3
mp-674708,-0.315191439,Rb4N4O3
mp-764624,-2.369348993,LiFe2(BO3)2
mp-755543,-3.049369034,HoHO2
mp-29426,-1.228312513,Y5C2I9
mp-644259,-0.343148158,Ti2NiH
mp-976053,0.355413896,Ge3Te
mp-2592,-0.49023322,Si2Mo
mp-25418,-2.693678514,LiTiPCO7
mp-31906,-2.086941913,MnReO4
mp-767417,-2.609316596,K2AlPCO7
mp-976423,-0.135681996,Nd3Pd
mp-722865,-0.998188118,H8Se2N2O5
mp-540868,-3.291017077,Ca3Si(ClO2)2
mp-779085,-3.006676415,LiMn2F5
mp-686175,-1.743446648,Si(Bi3O5)5
mp-2201,-0.568294484,PbSe
mp-392,-0.259770175,U3Sb4
mp-780159,-1.666782959,LiCoH8(SO6)2
mp-559554,-2.03395361,Li2TeO3
mp-631318,1.004025047,KSiTc2
mp-972572,-0.769738036,Sm2PdRh
mp-13940,-3.071831035,Sr2TmReO6
mp-5690,-3.939327112,GdScO3
mp-979262,-0.712082829,Tl3F
mp-30828,-0.551654979,Sr2Pb
mp-755832,-2.059567204,Na5GdO4
mp-866292,-0.371897136,Ba2TlCd
mp-764280,-3.057146016,Li2MnF4
mp-761042,-2.391066085,NaCu(PO3)3
mp-975521,-2.859546505,NdMgO3
mp-764443,-2.067400925,Li4Mn3Fe3(WO8)2
mp-541196,-0.719449176,Ce2Fe12P7
mp-770410,-2.209935064,Li2Cr2(SO4)3
mp-541745,-1.284838142,Rb3Nb2S11
mp-555955,-2.840112188,LaSeO3F
mp-695906,-2.021836952,RbSmH8(SO6)2
mp-706611,-2.183426219,LiBeH4NF4
mp-753769,-3.293432814,Sr3Li3La5O12
mp-401,-2.315498909,Sc2S3
mp-976249,-1.306757291,NdS3
mp-7466,-1.735633584,CaCu2O3
mp-20730,-0.389536696,HfCo2Sn
mp-769915,-3.42890404,La4Ga2O9
mp-680168,-0.522564113,K2Re3C2Se5N2
mp-40575,-2.219928497,LiNi2P4H3O14
mp-772320,-2.470511808,Li2CoSiO4
mp-510311,-0.412583485,BaZnPb
mp-999498,8.88E-16,N2
mp-7974,-2.961496198,RbSmO2
mp-22062,-0.96614064,Yb4As6Rh7
mp-561173,-1.909776457,Y3CuSiS7
mp-4800,-1.000808732,Ca11(CN5)2
mp-696673,-0.40711737,Cr7Se8
mp-771118,-1.78294673,Li4Co5Sb3O16
mp-1220,-0.093601853,Be5Au
mp-18725,-3.203711274,YCrO3
mp-767649,-3.121138347,Li2VF6
mp-19107,-2.390145786,LiMnVO4
mp-776015,-2.880775518,Li2Ti3NiO8
mp-5347,-3.654230587,KAlF4
mp-973796,0.028753639,PmHo
mp-705004,-2.277977634,LiNi(PO3)5
mp-22607,-0.594009804,Zn(InSe2)2
mp-625445,-1.643149767,H2SO4
mp-779072,-2.439880064,Li4MnFe3(BO3)4
mp-510321,-0.600071513,Zr5AlSn3
mp-780579,-2.54748538,Li3V3P8O29
mp-15748,-2.995513925,Sr2CuSi2O7
mp-29334,-2.339348147,K2PuCl5
mp-4871,-2.854990548,ErP5O14
mp-902,-0.164042137,BaZn
mp-764905,-3.010072911,Li2Mn3F8
mp-760332,-2.23410707,Sb6O5F8
mp-10246,-1.122624369,Na2PtS2
mp-24339,-0.94194229,Sm5Sb3H
mp-557562,-1.532956694,TiH8C4NO10
mp-30940,-1.538552835,Cd2Te2O7
mp-18734,-3.232215054,HoVO4
mp-28946,-2.207056856,Bi3NF6
mp-775939,-2.965458275,YNb2NO5
mp-558498,-1.157923807,ZnGaNO
mp-15487,-1.037843515,Ag6Ge2O7
mp-581963,-0.639878987,K4Hf3Te17
mp-18800,-2.498898867,Cr2SiO4
mp-850529,-1.59568353,SrCaI4
mp-721713,-0.443078313,H12Pd(I2N)4
mp-1013910,-2.323265731,LiFe2P2O9
mp-697808,-1.759649633,LiFe2P3O13
mp-2538,-0.719630239,Y5Si3
mp-558293,-2.825868332,K2Na(B3O5)3
mp-676723,-2.31734896,Li2SO4
mp-640708,-0.003887338,FeGe2
mp-31066,-1.397110919,LiUN2
mp-715584,-2.02587112,MoO3
mp-28018,-0.767960146,Be(H2N)2
mp-989591,-1.147294149,K2BrCl6F
mp-779752,-2.182446091,Na5V2P(CO4)4
mp-557632,-2.363221073,K2LiBO3
mp-505807,-0.174994792,Nd5Co21B4
mp-574283,-1.407015465,GdTe
mp-603327,-1.325444324,H3SNO3
mp-975929,0.047232171,Li3Ca
mp-768863,-2.813130057,PrAsO4
mp-867958,-0.332197191,TaInRu2
mp-139,0.00357971,Sr
mp-6098,-0.518719661,ErNi2B2C
mp-600028,-3.275625459,SiO2
mp-24199,-2.593114613,LiHF2
mp-976843,-0.030018538,Li2Mg
mp-779916,-2.311759337,Li2CuPO4
mp-864890,-0.65671269,Hf2FeIr
mp-779498,-2.867039218,Ba3(ClO)2
mp-554389,-1.255951427,Ta3(BiS3)2
mp-998153,-0.681621125,TlGeBr3
mp-772087,-2.694458121,Er3Sb5O12
mp-5787,-2.093191333,SrCuO2
mp-29990,-1.582468467,La3B2N5
mp-12669,-3.637148552,Dy2SO2
mp-15219,-1.355395336,Rb2VCuS4
mp-978882,0.137954365,SnBi3
mp-973099,-0.455442189,La2PdRu
mp-28217,-0.738647187,Tl2PS3
mp-16722,-0.090700792,Al10V
mp-21310,-0.71780148,TbGeRu
mp-1018133,-0.45341267,LiHPd
mp-21533,-2.260023278,CuP2PbO7
mp-505541,-0.434476532,V5As3
mp-554673,-2.669873875,KZnB(PO4)2
mp-541298,-3.16280754,KHfH2OF5
mp-775909,-3.785212128,ZrO2
mp-542269,-1.666507348,Pr4(GeS4)3
mp-781825,-1.713863512,Li9Cu2(HO2)4
mp-754835,-1.319469634,Na6CuO4
mp-7277,-0.748555072,Tl2GeS3
mp-754850,-1.660351832,NaTiS2
mp-2420,-0.37086573,PW
mp-569850,-1.843261232,CeBr3
mp-3642,-2.740048358,ScCuO2
mp-744532,-1.304271336,CoH4SeO5
mp-2195,-0.04082641,LuMg
mp-694963,-2.63036714,Sr7SmFe4(MoO6)4
mp-775209,-2.64723036,Li2MnNb3O8
mp-11580,-0.95552696,TiCrP
mp-775911,-2.858677029,La2Nb2N2O5
mp-555232,-3.254332323,LiU4P3O20
mp-580140,-0.297336634,Nb6Co16Ge7
mp-777875,-2.917478338,LiFeF4
mp-28959,-2.702823788,Si2Cl2O3
mp-765618,-2.252564977,Mn6O7F5
mp-649253,-2.47669313,NbClF8
mp-581760,-0.349089502,Yb2In
mp-11193,-1.040643126,VAuS2
mp-2218,-0.031900636,Er5Mg24
mp-771091,-1.856063272,Li2Cr2O7
mp-672267,-0.780145078,Ce(SnPt)2
mp-976876,-0.089063751,K2PtC2
mp-15056,-3.756786521,NaZr2TiF11
mp-12791,-0.599901584,SmCuSn
mp-14649,-3.077364153,Tb2Ge2O7
mp-631404,0.63438372,CrIrRu
mp-12600,-0.263508738,Pr2Tl
mp-20385,-0.318460149,Nd3InC
mp-2430,-0.598933902,ZrGe2
mp-6016,-2.881206296,NdAlGe2O7
mp-30728,-0.440914449,HoIn
mp-18619,-0.596787847,Na2Ge2Se5
mp-23292,-0.477399008,HgBr2
mp-27525,-2.729911042,K3TlF6
mp-561013,-2.088956348,Ga2PbO4
mp-23096,-2.510215848,LuSeClO3
mp-755072,-1.402926994,Na2O
mp-757532,-2.479712595,LiSnP2O7
mp-861869,-0.673133964,CaLuRh2
mp-1326,-0.155221636,Nb3Sn
mp-777475,-3.025508093,Li3FeF6
mp-1837,-0.233797425,TbCu
mp-776733,-3.180024464,Li3VF6
mp-982982,-0.330732869,HfH3
mp-3474,-2.444094503,LaCuO3
mp-571242,-1.726221671,Rb2CoCl4
mp-766313,-1.634190971,BaCa2I6
mp-762609,-1.728830269,Li2CrCo3O8
mp-643022,-0.30886979,Rb3H5Pd
mp-1019359,-1.260667271,ThSbSe
mp-3893,-0.556607435,Tb(CoB)2
mp-707135,-3.306344243,Al2Si4O11
mp-673255,-0.129242556,Cu9Se8
mp-764274,-2.722630403,VOF3
mp-24407,-1.711434045,CdP2H6O7
mp-961660,-0.585428735,TiFeSe
mp-765749,-1.811895028,Ni3OF5
mp-779108,-2.842993422,Be2P2O7
mp-759968,-1.738388815,Na2BiO3
mp-13906,-2.432057787,CuSnF6
mp-677437,-3.148455177,Na3Zr2Si2PO12
mp-707811,-2.257378133,ZrH6NOF5
mp-570907,-0.62969708,Tm(GeRu)2
mp-22898,-1.493483469,KI
mp-766449,-2.847125655,Li3TiSiO5
mp-756361,-2.549236198,ZrSeO
mp-768731,-2.240088791,Li2BiBO4
mp-19797,-0.501100305,YMnGe
mp-554775,-2.088561337,CaCuO2
mp-753974,-1.41728397,Li8CrS6
mp-541485,-2.494885002,Ba3CaRu2O9
mp-765640,-3.465744271,Sm3Ta17O47
mp-1223,-1.139590372,La4Sb3
mp-21323,-0.927479659,DyGeIr
mp-5800,-2.95348358,Sm3Ga5O12
mp-1164,-0.278147114,ThC
mp-12879,-0.983963591,Tb2Si5Rh3
mp-639,-1.809044794,US2
mp-863707,-0.369377141,KNa2Bi
mp-849616,-2.44711574,Li2Mn3(BO3)3
mp-753948,-3.549829658,PrTiO3
mp-10814,-3.017382346,SrLiBO3
mp-766925,-3.053467573,LiVF5
mp-16517,-0.649285034,TmAl2Ni
mp-770576,-1.574809009,FeH12(SO7)2
mp-551092,-1.82429977,KLiZnO2
mp-8948,-1.126939728,CeAsPd
mp-865175,-0.315794598,LiEuTl2
mp-754038,-2.885300036,YIO
mp-768378,-2.049625311,Ba2YBr7
mp-778856,-2.484809392,Li3Mn4(BO3)4
mp-17658,-0.537029336,Sm(NiGe)3
mp-1426,0.016112662,Sm2Fe17
mp-568342,-1.756796192,TbCl
mp-470,-2.094809671,GeO2
mp-683980,-1.506826477,Ho(IO3)3
mp-646750,-0.512443933,Y5CuPb3
mp-768175,-3.626724363,Dy2SO2
mp-867675,-1.886630888,GaHO2
mp-998155,-2.582564256,RbSrCl3
mp-756176,-1.257629418,Li2CrS3
mp-18868,-1.94861982,RbFe(MoO4)2
mp-631547,1.473170405,In2ReB
mp-989648,-0.147910176,Cs2AlGaH6
mp-18640,-3.040701827,LiTi2(PO4)3
mp-19660,-2.935172671,Sr2V2O7
mp-755481,-1.317382897,Ca(ClO3)2
mp-17921,-2.760125278,NbSeOF7
mp-33312,-1.127239516,Nd2UTe4
mp-677138,-2.499204185,RbPHO3F
mp-567243,-0.43245111,Tm(CrSi)2
mp-28987,-0.580772112,NaPt2Se3
mp-997109,-0.980725327,PbAuO2
mp-674804,-1.469901504,Sm2PbSe4
mp-17085,-3.876463579,Rb2Zr3OF12
mp-18885,-2.319896879,LaCrS2O
mp-755959,-1.64945325,NaLiO
mp-27833,-1.209851049,Tl2TeCl6
mp-980649,-0.463197602,TiNbRu2
mp-24722,-0.026206484,HRh
mp-34586,-1.305446244,Co2RuO4
mp-531864,-3.211472246,Al24Zn3O40
mp-554244,-1.849361684,Pr2SnS5
mp-631413,0.956714317,Re2PCl
mp-21438,-0.756699603,LaInAu
mp-9814,-0.182627351,Cu3SbSe4
mp-5285,-2.803637377,SrSO4
mp-556303,-1.377209742,CuBi2(SeO3)4
mp-28537,-1.668969282,As2PbO4
mp-28913,-1.992013689,Ti6CCl14
mp-1019730,-2.818415334,EuZn(BO2)5
mp-979270,-0.591629617,Tb2AgIr
mp-546279,-3.030771325,ScBrO
mp-773073,-3.366730983,Ba8Ta7O24
mp-22725,-0.10691357,TiInCu2
mp-2804,-1.099000661,LaP2
mp-754225,-3.75560825,YbTiO3
mp-542003,-0.74754242,Yb2Ni12P7
mp-734394,-2.401882965,KAlP2H4O9
mp-974973,-0.235784147,HfZrZn2
mp-23934,-1.560677652,PH6NO4
mp-540791,-0.716573461,Si4Rh3
mp-999258,-0.310932049,Sc2MnGe
mp-9784,-2.646916422,BaBAsO5
mp-20416,-0.524330113,SmFeB4
mp-11178,-1.383274881,SrCeN2
mp-772813,-2.082482641,Ca2Cu2O5
mp-977352,-0.212579112,ThMgZn2
mp-20865,-0.407928025,YCuPb
mp-1019723,-2.341693925,CsZn4(BO3)3
mp-773518,-2.044472743,Li4Cr3Fe3(TeO8)2
mp-21820,-0.782207813,Yb2Sn5Pt3
mp-744,-1.614318184,HoP
mp-690708,-2.394244987,KLiPH2O4F
mp-666,-0.662673132,UTe2
mp-30212,-1.086886517,La5Bi3Br
mp-632724,-0.958210785,ReH8(NCl3)2
mp-21069,-0.828483713,YSiRu
mp-780681,-2.472074403,LiFe3(SiO4)2
mp-5867,-2.976105771,K3Nb8O21
mp-555272,-3.590394438,Na5Zr2F13
mp-865525,-0.376727106,YCdHg2
mp-866068,-0.777474742,TbMgAu2
mp-977181,0.941360221,NaMo3
mp-8724,-1.883181474,K2TeO3
mp-3613,-2.180367274,NaErS2
mp-765055,-2.964657412,Li2Mn2F7
mp-3504,-0.191541594,NbNi2Sn
mp-554863,-3.021521923,KNb5O13
mp-998972,-0.427114558,TiAu
mp-772397,-1.951652799,Li5WNO4
mp-763903,-2.913652072,V3OF11
mp-2097,-1.647595939,SnO
mp-30842,-0.819866528,ZrPd3
mp-982559,-0.714704809,HoAlAu2
mp-721624,-3.250143824,Ca5P3HO13
mp-17357,-3.310471614,NaSmSiO4
mp-559824,-0.923211941,Au2Se3O10
mp-989229,-1.22640172,MgH8(ClO6)2
mp-764861,-2.90930319,Li2Mn2F7
mp-862780,-1.069688805,K2InP2S7
mp-773399,-2.614305947,Li3Fe(PO4)2
mp-972837,0.435806532,SiBi3
mp-752837,-2.099882926,LiAgF3
mp-504340,-2.496834479,LiSb(PO3)4
mp-861951,-0.55888437,LiTaRh2
mp-16830,-0.344124529,Sr(Ni2B)6
mp-20877,-0.605752163,NbCoB2
mp-770572,-1.695263001,Li2FeH12(SO7)2
mp-31245,-2.324321552,Tb2Te4O11
mp-997107,-0.828448061,CuO2F
mp-4551,-3.802357931,SrHfO3
mp-1008802,0.890571355,ReC2
mp-4643,-2.541368402,Nb2CuO6
mp-755446,-2.083219352,Bi2(BO3)3
mp-510280,-0.662025425,CeAgSb2
mp-679999,-0.710229219,Re3(SeCl)7
mp-6931,-0.296118652,Sr(AlSi)2
mp-28230,-0.666120347,TlSbS2
mp-5913,-3.629428581,Pr2Si2O7
mp-698205,-1.903776128,LiB(HO2)2
mp-19828,-0.043659563,PuRu3C
mp-2146,-0.21269503,KGe
mp-676497,-1.117227921,Ce2UTe4
mp-36234,-1.419227797,NaTlO2
mp-30424,-0.153745925,Zn3Au
mp-20657,-0.460511159,Li2BPd3
mp-4377,-3.388901366,K2TbF6
mp-772788,-1.936813694,Ba2Cu2O5
mp-772096,-2.0236565,TmTe3O8
mp-780473,-2.799858698,Mn6OF11
mp-30406,-0.36164234,Li2TlAu
mp-1993,-0.027262201,Tm5Mg24
mp-662605,-3.008554103,Na2Si4O9
mp-733443,-3.055820319,Ca7Si6H4CO23
mp-980059,-0.769688479,TbPmRh2
mp-558712,-0.932703702,Ag2BiO3
mp-19122,-3.122760879,BaSr2Mn2(Si2O7)2
mp-570193,-1.211542554,NaAuCl4
mp-557006,-2.483872732,Na2SbSO4F3
mp-999096,-0.135275891,Ti2AlCr
mp-675745,-0.976096895,Cu(Mo3S4)2
mp-769205,-0.89272543,Li(NiS)2
mp-569523,-0.523028043,Y2InNi2
mp-30638,-0.06383028,ThFe3
mp-776060,-2.439604961,MnCr2Fe3(PO4)6
mp-16919,-2.293975097,Y2HfS5
mp-556721,-2.771500496,Ba5Re3BrO15
mp-558692,-2.221278905,Sb2ClO2F11
mp-728,-0.379840537,Li2Pd
mp-782646,-1.640127451,Fe4O7F
mp-773494,-1.472583733,CsH5S2(NO3)2
mp-21453,-1.02426476,PrSnPt
mp-864899,-0.440865195,NpP3
mp-758026,-2.657782768,Li4Si4Bi2O13
mp-570452,-0.559780872,Y(SiAu)2
mp-4361,-1.357067078,K4Ta2S11
mp-766966,-1.778820808,K2InH2Cl5O
mp-27788,-1.498994835,TaPCl10
mp-973682,-0.217358287,Fe3B
mp-571651,-1.115035394,TiSe
mp-540991,-0.462562514,BaNi9As5
mp-974372,0.160534305,Rh3Se
mp-756781,-3.118334231,Sr3Li2Nb4O13
mp-772063,-2.819976959,BaLaCl5
mp-20938,-1.036187179,RbIn5S8
mp-685105,-1.156021125,SiO4
mp-569085,-1.113703608,Li6Br3N
mp-30558,-0.188223716,HoCo3
mp-676516,-0.724388422,Pr2Pb17Se20
mp-30681,-0.322543134,YGa6
mp-7623,-0.232675192,MgAs4
mp-849800,-1.313640426,H7SIO10
mp-9503,-1.241812528,BaDyCuTe3
mp-770414,-2.815170492,LiAlVO4
mp-772261,-2.865578606,LaAsO4
mp-768950,-1.97958708,Sn2(SO4)3
mp-975373,-0.552460555,RbNiO3
mp-558129,-2.925681942,KNaSi2O5
mp-8688,-1.246986643,V4GeS8
mp-862681,-0.049579111,ErMg3
mp-569991,-0.182406032,Na15SnGe8P
mp-10214,-0.884210841,Y2GeRh3
mp-755633,-1.029064913,K5Se3
mp-5213,-0.098005012,CdSnP2
mp-19135,-2.333855973,Ni(PO3)2
mp-626865,-1.536800325,H2WO5
mp-531826,-1.696516993,Li2PtO3
mp-33239,-2.021551324,Pu2S3
mp-764731,-1.888702059,Li2NiO2F
mp-7424,-0.268425282,BPd2
mp-22964,-2.15134497,PbClF
mp-9145,-0.89171324,Rb2SnSe3
mp-30816,-0.5312912,Li2AlPd
mp-31496,-0.44796103,Li2Sn2Au
mp-1522,-0.948354034,FeS2
mp-722316,-1.213548131,KPH5C2SN3O4
mp-850951,-2.710712009,Li3MnV(P2O7)2
mp-17349,-2.565481365,Na3In2(PO4)3
mp-5786,-0.513184463,U(SiOs)2
mp-775154,-2.860140624,LiMnF4
mp-21347,-0.430259673,CoBMo
mp-19108,-2.791064975,Ca2MnWO6
mp-20006,-2.656022616,ZnPb2F6
mp-866474,-1.736579551,Ca2SnS4
mp-979955,0.310957835,Yb3Mn
mp-752678,0.002848644,AgAuO3
mp-2412,-0.193436893,LiP5
mp-778755,-2.424286413,Li8MnFe7(BO3)8
mp-27961,-0.521536778,Zr3(Cu2Si3)2
mp-23662,-1.936257138,LiB(HO)4
mp-755049,-2.078628397,Li3Cu3(PO4)2
mp-27300,-0.860202824,RbAuBr3
mp-4107,-0.264294029,Li(CoGe)6
mp-505791,-0.555513402,ReH8(Br3N)2
mp-972116,-0.645855445,VIrO3
mp-556587,-0.772402377,AuSCl7
mp-757853,-3.117839269,Na4Ti5O12
mp-752419,-1.605908428,SrCaI4
mp-2744,-0.43239359,LiPd
mp-616210,-0.384512047,Pr5In11Ni6
mp-767706,-3.15038717,LiV2F7
mp-977541,-0.630854939,Hf2TcOs
mp-973465,-0.24801811,Ho3In
mp-9238,-3.003124414,Ba2UCuO6
mp-631531,1.632523768,NbBW
mp-764945,-2.398185149,LiCoSiO4
mp-18940,-2.472434925,Sr2NiMoO6
mp-865441,-0.760263217,TiAlPd2
mp-571144,-1.389446557,Sm3Te4
mp-11393,-0.353935179,Nb3Ga2
mp-567618,-0.587802173,Si5Pt12
mp-973893,-0.35345345,Lu2TlHg
mp-866005,-0.342156581,Dy2TlCd
mp-761390,-2.744680858,TaFeO4
mp-570727,-0.781135803,SbCNCl6
mp-29685,-0.30286552,RbAg5Se3
mp-774299,-2.481647883,Li8Mn5Fe3(BO3)8
mp-559537,-3.08998598,Ca4P6O19
mp-22639,-0.758033412,U(NiP)2
mp-983126,-0.347092171,HoTmZn2
mp-21975,-0.042107471,In4Ag9
mp-764000,-2.623744761,Li3CoOF3
mp-675284,-3.821177241,Lu2TiO5
mp-760825,-1.820641315,LiCu3F10
mp-542459,-2.459924115,BaGa2(GeO4)2
mp-695133,-3.324112142,CsMg4Al9(SiO4)9
mp-28813,-1.40220525,Si3CCl8
mp-6114,-1.153305594,La3Ni2B2N3
mp-4014,-0.582696605,Pr(CuSi)2
mp-762657,-2.553102123,LiFe(PO3)3
mp-615420,-3.211210491,U3CuO10
mp-771988,-2.234986172,MnCo(PO4)2
mp-8182,-0.444075293,As3Rh
mp-1013794,-1.691550431,Na3Co2(GeO4)3
mp-9517,-1.554181998,SrTiN2
mp-697948,-0.316955074,Cs4Mg3H10
mp-7377,-0.517965291,Ba3(AlSn)2
mp-546672,-2.270353162,LaBi2IO4
mp-510076,-0.680390089,Rb7Au5O2
mp-3732,-1.417279982,Ti2CS
mp-27661,-2.697749479,U2Cl5O2
mp-775,-0.744948565,Er5Si4
mp-779754,-1.740860884,Na5Ni2As(CO4)4
mp-21538,-0.503434643,Ba5Ge3
mp-866291,-0.373086353,AgBr
mp-707459,-1.904541773,Na2ZnP2(H5O6)2
mp-22369,-0.702720506,FeSb6(Pb2S7)2
mp-542953,-0.31227605,CaZn3Ni2
mp-13490,-0.657399933,ErAl3Ni2
mp-757967,-2.437153553,LiSn4P7O24
mp-30878,-0.35245936,TbTl
mp-978258,0.329803015,MgTa
mp-20226,-0.574253913,UGeIr
mp-5414,-1.007906328,NaSbS2
mp-1011260,-2.527537448,EuFeO3
mp-756570,-1.516291368,Rb4SnO3
mp-3435,-0.770321404,Nd3Cu3Sb4
mp-669376,-3.753431435,KU2F9
mp-29791,-3.304223883,Nd4PdO7
mp-559971,-1.896382423,LiS2N(O2F)2
mp-12515,-1.94563317,LaZnSbO
mp-975880,-0.105477117,PrSmMg2
mp-11755,-0.528867434,Lu6Sb2Mo
mp-3213,-0.610812731,LaMnSi2
mp-684018,-2.957474075,SrB8O13
mp-11548,-0.659814069,YbTlPd
mp-981213,-0.710864046,TbSmIr2
mp-631408,0.562035888,KSi2Hg
mp-867681,-2.587557472,Li5Si2BiO8
mp-16638,-0.193145782,Nd2MgCu2
mp-4405,-0.801660956,Rb3AuO
mp-705480,-2.33847657,MnF4
mp-31829,-2.191857069,Fe3(PO4)4
mp-640922,-0.924536027,CeInPt
mp-975611,0.99487261,Ge3B
mp-997028,-0.642477539,AgO2F
mp-29515,-1.853059487,PH2F3
mp-627439,-0.366713254,Mn3GaN
mp-757042,-2.42801369,LiSnPO4
mp-570180,-1.059797488,YbPt
mp-5427,-3.000018788,Mg2P2O7
mp-752651,-2.509942348,Li4Ti2Nb3Cu3O16
mp-18690,-4.259564066,SmF3
mp-18125,-1.398464006,Ag(AuF4)2
mp-11925,-0.749629488,RbTa(CuSe2)2
mp-768510,-2.657245895,Ba4Sn3O10
mp-699473,-0.827648688,Li2B12H26O7
mp-23021,-0.989811449,K2ReBr6
mp-30024,-2.256795404,Sr(AlCl4)2
mp-38802,-2.039135938,Ga2CoO4
mp-567666,-0.851674278,Ba3BiN
mp-867349,-0.228861967,Dy2MgTl
mp-29973,-0.717372061,SrN
mp-775349,-3.009261833,Li2Cr(Si2O5)3
mp-988,-1.312394655,Si3N4
mp-764043,-1.879579936,Li3Mn3NiO8
mp-556631,-3.465898184,KZrSnF7
mp-851118,-3.240319342,KNa2LiZr2(Si2O5)6
mp-1880,-2.707440227,SbF3
mp-675179,-3.495855203,Ba3Bi2F12
mp-13285,-1.092721806,NaPd3O4
mp-28341,-1.76806189,LiGaCl4
mp-20152,-0.423483041,In(MoSe)3
mp-974951,-0.012415693,Rb3Hg
mp-22472,-2.131458488,Ba3CuRu2O9
mp-775206,-2.417340632,VSb3(PO4)6
mp-769321,-1.277464978,ZnSeO4
mp-765741,-2.238853352,Li4Mn2V3Sb3O16
mp-756869,-2.343904723,K2TbO3
mp-21617,-1.493311522,In2Cu2O5
mp-866669,-0.331501461,Sr17(Li2Hg3)3
mp-19463,-2.412445902,Na5Tb(WO4)4
mp-653981,-2.045841591,Zr6NiCl15
mp-1018024,-0.164764384,MnFeCoGe
mp-22163,-2.550478769,NaSn2(PO4)3
mp-1298,-0.224554783,KAu5
mp-31289,-1.538251241,Bi5NO10
mp-761524,-1.882243763,MgCoO3
mp-561072,-3.133531156,Sr2DySbO6
mp-756505,-2.279915132,Cs3ScO3
mp-771717,-1.946683974,Mn2O3
mp-569683,-0.121628311,InAu3
mp-762287,-2.451912769,Li2V5O10
mp-28489,-0.913227981,Ca5(GaN2)2
mp-5614,-1.3253688,Li3BS3
mp-4922,-0.40088463,MnAlNi2
mp-625501,-1.416435599,NaH9O5
mp-676934,-3.272751282,KCaNd(PO4)2
mp-630329,-1.472725204,PbSeO3
mp-773044,-1.433732494,LiCuO2
mp-570843,-0.8595183,Tm(GeRh)2
mp-758597,-2.870622845,K2TiSi3(HO5)2
mp-775804,-1.183052516,Li3SbS3
mp-697121,-1.312676914,MgZn2H12(BrO)6
mp-7250,-0.155749073,Nb6Co7
mp-754266,-1.560097452,Li8TiS6
mp-689981,-2.371480294,MnPO4
mp-753911,-2.807146372,GdAsO4
mp-571506,-0.605950422,TmAlSi
mp-762197,-0.623702145,RbAl(H2N)4
mp-780255,-3.71008992,Gd3NbO7
mp-33056,2.21161998,Rb6C5
mp-6278,-1.646204845,Zn2Cu(AsO4)2
mp-766480,-0.89333975,LiCuS
mp-764594,-2.754459167,Li4Fe3OF8
mp-998419,-2.233534848,BaHfS3
mp-858,-0.500397137,TmAl2
mp-29423,-0.676306621,TlFeBr4
mp-754352,-1.339619276,Na3CuO2
mp-30498,-0.287354171,TbCd3
mp-865177,-0.569576366,GdNiB4
mp-568466,-0.150023106,LiInSn
mp-752666,-1.862319905,LiAg2F4
mp-560493,-1.3918184,Ba2V(CuS2)3
mp-542391,-0.4510427,Tm(SiNi5)2
mp-606675,-0.287724355,MnGaNi2
mp-567652,-2.476877814,Cs2LiYCl6
mp-6327,-3.221815741,LiAlSiO4
mp-1016932,-1.264171428,MnZnO3
mp-557857,-3.034120361,SrLi2Nb2O7
mp-24640,-2.187799298,ErH3(SO4)3
mp-11248,-0.359252018,LiAu3
mp-752726,-3.562222549,BaLa2O4
mp-571406,-0.573953419,Ga2Pt
mp-10113,-0.641753206,ScBIr3