id,formation_energy_per_atom,pretty_formula
mp-559618,-1.850130794,NaB(CO2)4
mp-13407,-0.337289204,CeAgPb
mp-20122,-0.871190692,DyGe
mp-13933,-3.072743671,Ba2HoReO6
mp-775997,-2.526072714,V3P2O11
mp-694922,-3.228499821,BaLa5TiCr5O18
mp-29170,-1.498021927,Hg(AuF4)2
mp-17439,-2.940075237,KSm(PO3)4
mp-755612,-3.153954049,DyGaO3
mp-746692,-2.221077046,K2Co3P4(HO4)4
mp-709186,-2.177602517,K4LiH3(SO4)4
mp-680284,-1.25661006,Rb6Ta4S25
mp-20846,-0.436857881,CaIn2Ir
mp-569837,-0.32195047,Ti3Sb
mp-753868,-2.154884497,SbOF
mp-695808,-2.162130281,Ni(PO3)4
mp-977475,-0.694471923,ZrInPd2
mp-567775,-1.29151142,La10C4I15
mp-975337,-1.460469735,RbF3
mp-18975,-2.554199326,Na2SrV4O12
mp-1019731,-3.157690329,EuAl3(BO3)4
mp-1260,-0.377640887,SrPd5
mp-15577,-3.323933605,Pr4Ga2O9
mp-26710,-2.472518346,LiSnP2O7
mp-22133,-0.359938124,Eu(ZnSi)2
mp-1018053,0.057197201,InCu
mp-680058,-0.29199277,InTeI7
mp-865322,-2.950860728,UTlO3
mp-37024,-3.798466937,Ho10Ti6O27
mp-31441,-0.422441218,Li2GaIr
mp-865020,-0.840840587,HfMgIr2
mp-978796,-0.473856757,SmDyIn2
mp-540077,-2.395127138,Fe(PO3)4
mp-753355,-3.917691574,Ce5Y2O13
mp-669391,-0.805260544,Ca4Zn2Cu3P5
mp-27231,-2.036376196,Li2TeO3
mp-755642,-1.408596753,Li3VS4
mp-18989,-3.210113101,LaVO4
mp-1002122,-0.872998565,HfIr
mp-695829,-1.538303369,RbHSeO4
mp-31485,-0.555663856,Ga5Pd13
mp-607738,-0.680798017,CeZnRh
mp-560100,-1.878636306,CdCu2(BO3)2
mp-27220,-1.270812505,Tl5SbO5
mp-3154,-2.649476791,Sm3Sb5O12
mp-634113,-1.740937865,Cd2H2SO6
mp-22535,-2.982260859,HfPbO3
mp-559894,-1.694773817,Sb2Te2O9
mp-643439,-0.504899109,BaMg2H8Os
mp-867822,-0.711262348,LiYAu2
mp-570734,-1.068537319,Pr3Pt4
mp-1231,-0.050702384,Cr3Ga
mp-779262,-2.131015663,LiFePCO7
mp-768335,-1.059291778,Li3(FeS2)2
mp-770599,-2.055321577,Li6Fe2C4SO16
mp-768958,-2.69807634,Ba2Y5Cl19
mp-1006127,0.220926409,Pa3Mo
mp-560898,-1.990518191,NaPr(SeO4)2
mp-22642,-0.932012373,Zr2Se
mp-769488,-2.305079188,Na5Fe2P2(CO7)2
mp-1020012,-2.196499983,Li2Ge4O9
mp-30780,-0.566690621,SrMgSn
mp-767600,-2.928042048,Li2MnF5
mp-978527,-0.355448056,SmDyTl2
mp-775156,-2.599390507,LiMnSiO4
mp-764642,-2.514182895,Li2CoSiO4
mp-23794,-1.176853694,H4NF
mp-24076,-2.308018795,Y(HO)3
mp-761574,-1.785400647,CoSnO3
mp-645543,-0.918128811,Pr3(Ge3Pt2)2
mp-643293,-0.506889623,SrMgNiH4
mp-2360,-0.66279089,CaGe
mp-974748,0.660133715,Rb3Tm
mp-673677,-4.17388515,La2Th3O9
mp-743567,-2.963921563,Li2Ti4Ni(PO5)4
mp-1013536,0.153294747,Sr3PN
mp-675514,-2.122935613,Ce3AsS3
mp-30875,-0.330681971,Ti2Sn
mp-1013750,-2.213943433,Sn4SF6
mp-10529,-0.716699296,Er2AlSi2
mp-14437,-3.030702307,RbYO2
mp-778721,-2.511879071,Li8Mn7Fe(BO3)8
mp-23056,-1.393124453,Sr2BrN
mp-23781,-2.228443243,Rb3H(SO4)2
mp-867904,-0.493893494,AlGeRu2
mp-529,-0.087693701,SmMg2
mp-504590,-3.183264633,Ca2Si3PbO9
mp-7248,-0.18114273,U(Al2Cu)4
mp-30365,-0.1332325,BeAu
mp-776378,-2.038963888,LiCuBO3
mp-772195,-3.719105861,Dy3Al5O12
mp-9164,-0.776368648,ThSiAu
mp-555288,-1.7940372,SbS(BrF2)3
mp-5104,-3.426552858,CaZnF4
mp-626788,-1.711863949,ReH3O5
mp-561226,-2.365490424,BTe3(OF5)3
mp-30351,-0.15622398,MgAg3
mp-555100,-2.537390499,NbBiO4
mp-752428,-2.18954502,Rb2PrO3
mp-13820,-2.062206445,Cd3SiO5
mp-554899,-3.65500665,CsAlF4
mp-771191,-1.5405243,Li5Co7O16
mp-21049,-0.086477022,GdMg2
mp-5748,-0.63711117,HfAlNi2
mp-7639,-0.360160732,Na2CuP
mp-1022,-1.279051147,K2S
mp-560097,-2.416417713,CaTeO3
mp-698527,-1.960279936,SbH3C2(O2F3)2
mp-976277,-0.320445972,Nd(NiBi)2
mp-680610,-0.540737049,Pr4In21Pd10
mp-705035,-2.487103634,Mo(PO3)4
mp-765601,-2.398926821,Li3V4O11F
mp-754701,-3.548148422,CaTiO3
mp-1008727,0.234097891,Ti2Ge
mp-733637,-1.402701861,NaH8O5
mp-849503,-2.489192409,Li5Mn6(BO3)6
mp-11772,-3.36199983,Ba3Ti3(BO6)2
mp-776112,-1.654839011,Li2Fe3NiO8
mp-680334,-1.545538642,LaSb(SBr)2
mp-23410,-0.563129558,Nb3Se12I
mp-12003,-0.515291,Al9Ir2
mp-23657,-2.374220919,Na6S2ClO8F
mp-555862,-1.45378729,CsZr(NO3)5
mp-765841,-2.614266143,LiV2O3F
mp-695243,-3.477850782,Na2SrLa2Ti5O15
mp-19121,-3.230931073,TbVO4
mp-572929,-1.096357292,U2Cu2As3O
mp-645340,-3.195583224,Nd(BO2)3
mp-504787,-3.805969359,NpF4
mp-1009131,0.169573568,MnAs
mp-562065,-2.28273415,PO2
mp-755703,-1.975459396,LiSbO2
mp-774381,-2.340258909,LiFe4(BO3)4
mp-20650,-0.427279385,CeCrGe3
mp-2285,-0.260105437,Te2Ir
mp-976355,-0.222783266,Lu3Si
mp-560398,-2.134793987,K2Zn(GeO3)2
mp-756889,-1.098436241,KRbO
mp-9391,-0.361189418,TaNi2Te3
mp-774305,-1.239547295,LiCo2NiO6
mp-22204,-0.521095676,Co2P
mp-684108,-2.72708858,Li2Ti(PO3)5
mp-864666,-1.893854746,Nd3SiAgS7
mp-764815,-2.356717609,Li3Fe8(BO3)8
mp-580161,-0.269617147,Na3InBi2
mp-1008733,0.319219215,Ge
mp-15431,-0.409241171,Na2Ga2As3
mp-690554,-2.6103127,Sr5La5Cu(NiO5)4
mp-542813,-1.708562606,K2BeH4(SeO5)2
mp-1463,-0.724675667,LaIr2
mp-850983,-1.972258328,Li2V2P2(H4O5)3
mp-763540,-1.653205011,LiNi(CO3)2
mp-23738,-0.30948296,RbMgH3
mp-998911,-0.838948758,TmGe
mp-9263,-1.377547161,KErTe2
mp-771644,-1.254530675,Li3Cu5O8
mp-775261,-2.469326656,Li2MnFe(BO3)2
mp-16502,-0.29361636,Ho2Al
mp-768941,-2.77081043,Sr3TeO6
mp-557448,-3.569091918,Ba2CaUO6
mp-698164,-2.501914302,Rb2B10H6O19
mp-11447,-0.438738677,UTe
mp-34078,-1.234917788,H3ClO
mp-754621,-3.021644286,Sm2Ge2O7
mp-1016849,-1.104508382,CdRuO3
mp-2391,-0.697081053,YbPd3
mp-759473,-2.734399271,Na5Ti3O8
mp-4907,-1.211787361,Na6Sn2S7
mp-745163,-1.959189848,Mn2Cu5P4(HO9)2
mp-984717,-0.14649217,BeNi3
mp-768303,-3.510622982,DyNbO4
mp-975726,-0.505919073,PrAl4Co
mp-780295,-2.669549271,Li2VO2F
mp-647822,-0.324565354,Pd2S9N4
mp-27662,-0.926057302,CsI2Br
mp-33606,-1.927359674,Ba(PrSe2)2
mp-19911,-0.202546412,TmIn5Co
mp-676370,-2.336507171,Yb3Ti3O14
mp-774473,-2.244000657,LiNbCuO4
mp-4096,-3.626049892,CeAlO3
mp-764951,-2.500493962,Li6V2O5F2
mp-20004,-0.692531737,Zr2InC
mp-29692,-1.078248426,K2TeS3
mp-769015,-3.176596641,DyGaO3
mp-16313,-1.22263164,TbSbPt
mp-672677,-0.614368872,Ti6Co16Si7
mp-20776,-0.299670873,U(CoGe)2
mp-9289,-0.678274658,ZrSnTe
mp-559864,-0.754060306,InSb2S4Br
mp-555451,-2.544326718,Sr3U(Te2O7)2
mp-570662,-0.259020131,Ba4Ag3Ge20
mp-770499,-2.480040239,Mn4P2O9
mp-3092,-0.478696236,DyB2Ru3
mp-1009829,0.232246828,Be2Si
mp-945184,-0.899562718,YCuTe2
mp-1018056,-0.518792242,HfNi
mp-558137,-2.74064799,AlBPbO4
mp-559759,-3.341552408,CaAlBO4
mp-556341,-1.489044915,Ti4S8Br6O
mp-19217,-3.100907501,ErMnO3
mp-720111,-2.652762309,Na4Al3Si3ClO16
mp-1106,-0.368340164,Sr2Si
mp-555165,-3.262791839,SiO2
mp-766108,-3.001470759,Ba3LiTi5(SbO7)3
mp-15170,-3.046514602,Lu2Sn2O7
mp-28149,-0.079031334,Bi9I2
mp-1019602,-2.994165727,Cs2Al2B2O7
mp-769039,-3.04128414,Dy2TeO6
mp-561153,-0.850311127,XeF3
mp-558739,-0.679161789,RbSb2Au3S5
mp-571163,-0.300570438,MnSbRh2
mp-760348,-2.160810725,Li10Zn3(GeO4)4
mp-13276,-0.980980909,SrLiP
mp-568809,-0.331108154,Ba5Al5Pb
mp-20723,-0.711008132,Ca2PbAu2
mp-974822,-0.035492473,Rb3P
mp-773925,-2.281270849,Li4V3NiO8
mp-643265,-2.419776164,ReF7
mp-1679,-0.317726038,La2Ni7
mp-585184,-2.428464575,Mo2P3O13
mp-674522,-3.092163334,K6U4O15
mp-4896,-1.038953627,Sm(SiPt)2
mp-2682,-0.467463612,Sb2Rh
mp-6938,-0.385777612,ZnRh
mp-34728,-2.674373077,Al2CuO4
mp-3471,-0.478144876,La2Ni5B4
mp-8117,-1.080597899,Rb(MoS)3
mp-780362,-1.147292185,La(ClO4)3
mp-770748,-3.815976893,Gd3TaO7
mp-706426,-2.576814241,Ca2P2H4O9
mp-29656,-0.146512265,AgBiTe2
mp-3172,-0.093256267,Ag3AuSe2
mp-557274,-0.755525848,Cu4Si2NiS7
mp-4790,-3.279727696,ThGeO4
mp-13352,-1.533746125,RbUCuS3
mp-776310,-3.078905091,La8Cu3O16
mp-690122,-2.98154666,Nd2Mo2O7
mp-20383,-1.043224317,TbSiIr
mp-585241,-2.319840969,LiBi2(PO4)3
mp-542844,-2.248999543,V2O5
mp-697814,-2.092791827,CoP2O7
mp-972601,-0.072006273,SmLuMg2
mp-7118,-1.769248168,Rb4SnO4
mp-21584,-0.565504644,Ta11(CoSe4)2
mp-972848,2.22857942,SiC3
mp-504877,-0.560374638,HoB7Mo3
mp-997098,-0.846143159,CuPtO2
mp-4614,-0.402862691,Tb(SiAg)2
mp-2705,-0.45767142,VPt3
mp-561130,-1.31184423,Na3GaS3
mp-27707,-1.491704801,RbCoCl3
mp-862956,-0.695179556,PmSnAu2
mp-9774,-1.599637356,Ba4Sb2O
mp-16897,-0.798070822,Sr2Sb3
mp-2681,-0.906069719,Ho5Sb3
mp-862865,-0.037711436,PaZn3
mp-996968,-1.130558711,AgBiO2
mp-5454,-0.639321127,Er3(CuSi)4
mp-510439,-0.482128429,In2Pt3
mp-767469,-0.632503174,Ni9S10
mp-875,-0.415617278,AlOs
mp-983559,-0.239629112,CePmZn2
mp-6372,-3.193330928,K2Be3Zn2F12
mp-865107,-0.122644306,NaMgPb2
mp-763541,-1.979427297,KMn2O4
mp-6362,-2.791231398,Sr2TbIrO6
mp-752453,-3.774472762,Sm2TiO5
mp-35717,-1.680493474,LiDySe2
mp-644225,-0.526347046,Sr2MgH6
mp-24291,-0.579506366,ThH2
mp-642331,-0.763216361,Ca19In8N7
mp-757673,-2.844422738,LiTiP2O7
mp-697020,-2.664671645,LiAlSiH2O5
mp-15107,-2.050301077,KSnAsO5
mp-773887,-2.372863963,TiBi2O5
mp-9732,-0.764814773,BaNaP
mp-20573,-0.381960512,DyMgIn
mp-744672,-2.455642767,Ca2Mn2Si4H6O17
mp-558595,-2.448762556,Ba6Ru3(ClO6)2
mp-782635,-1.951112248,Fe3(O2F)2
mp-777144,-2.623616801,Ti3Cu2Te(PO4)6
mp-971700,-0.173123026,ZnAuO3
mp-769598,-3.351973705,La4MnO8
mp-35281,-1.94604078,Sm2CdS4
mp-540082,-2.499678308,Mo2(PO4)3
mp-777893,-3.053118352,LiVF3
mp-23809,-2.900882808,RbScBP2HO9
mp-754268,-1.391034816,Li3Cu4TeO8
mp-777895,-2.167883555,MnCr2Ni3(PO4)6
mp-29412,-0.898728444,Ta3Br7
mp-27904,-0.584609041,FeSbS
mp-1013734,-0.749424599,Ba3AsN
mp-743568,-1.349655326,MnH2(SeO4)2
mp-541124,-0.916337083,Y6Ni20P13
mp-774691,-2.746460704,Ba6Na2P2Ru2O17
mp-774308,-1.910547408,Fe5O7F3
mp-2626,-0.808235742,Zr3Rh5
mp-978114,-1.780681453,Sn5O6
mp-756148,-2.411896351,Sm2Pt2O7
mp-680604,-0.219302685,YbCd6
mp-687091,-2.686911738,Rb2U2Mo3O16
mp-973433,-0.502633869,LuScRu2
mp-9747,-2.667457382,B4PbO7
mp-674333,-2.536269728,Na3PO4
mp-756044,-2.063306435,Na3AsO4
mp-767530,-2.553676684,BaNa3PCO7
mp-767351,-2.669549347,V5(P3O11)2
mp-769285,-3.320284969,Ho3ReO8
mp-15779,-0.465559191,Mg2SiNi3
mp-19265,-2.413748491,DyNiO3
mp-766409,-1.204122601,Li3BiS3
mp-996997,-1.119796895,LiAgO2
mp-625596,-1.23859218,H9BrO4
mp-764542,-2.375246971,Li5Fe8(BO3)8
mp-2281,-1.176022501,SmSb
mp-770851,-2.126966607,Li2TiNi2O5
mp-556127,-1.574487465,MgH6(CO3)2
mp-865352,-0.079593114,Mg17Al11Pd
mp-600071,-3.27555654,SiO2
mp-24212,-1.616181471,RbP(HO)2
mp-765093,-2.456633972,LiSb(PO3)4
mp-942733,-3.141394448,Li7La3Zr2O12
mp-6973,-1.266463918,CsNaS
mp-31016,-3.355008284,Ca4Nb2O9
mp-1295,-0.989671032,Yb4Sb3
mp-772220,-3.188286649,Li3Ta7O19
mp-16478,-0.855340162,Tb2Si5Ru3
mp-694958,-3.202077992,Na2Li5Al7Si29O72
mp-5005,-3.053687946,Mg3(BO3)2
mp-743566,-2.432980483,MnFe2Sb2(PO4)6
mp-16507,-0.397280316,LuAl
mp-753416,-2.055740735,LiCuBO3
mp-20909,-0.302368549,La3In
mp-22127,-2.511707494,Yb2Ge2O7
mp-12674,-0.0062125,MnAu
mp-570769,-0.16743119,CaInCu4
mp-541097,-3.687474665,Zr3Pb(O2F3)2
mp-676410,-1.623236256,LuAgS2
mp-21482,0.013192233,NpIn3
mp-761897,-2.317484109,LiCuF3
mp-30133,-0.727538583,Ba(CuTe)2
mp-23897,-1.678964594,Rb3H(SeO4)2
mp-561104,-1.093039182,Ga(IO3)3
mp-698480,-1.785951322,Sb4H2SO10
mp-975505,-2.138946445,Rb2CoP4(HO2)8
mp-27617,-3.732318069,Ce2SeF4
mp-30475,-0.062371401,CaHg11
mp-541538,-2.373240134,K2CdSiO4
mp-743569,-1.828487305,MnH6(OF)3
mp-641191,-2.506263796,U2Tl2Mo3O16
mp-782818,-2.681050208,Mn12O5F19
mp-30460,-0.670611258,YNiBi
mp-863690,-0.380205778,Ti2MnCo
mp-8700,-0.340833073,K2Au3
mp-38676,-1.320167165,Li11(NiO2)12
mp-32516,-2.689643615,LiV2P3O11
mp-21727,-1.899794626,CuGe5Pb3O14
mp-31120,-3.981593014,DyScO3
mp-31020,-1.45955938,AsI5F6
mp-997018,-0.306880196,AuClO2
mp-9197,-2.287109556,Li3AsO4
mp-19835,-0.400776307,Nb2InC
mp-7785,-0.652574674,CsCu4S3
mp-571353,-0.300698957,BaSn5
mp-580941,-0.238039271,AgI
mp-708035,-1.456627115,NaZn(H3O2)3
mp-850464,-2.218394801,Li5Cr4O8
mp-976743,-0.250983788,LiEr2In
mp-21383,-0.995130004,Eu(SiRh)2
mp-601326,-0.70998441,Sr6Ge5N2
mp-997041,-1.358779165,NaCuO2
mp-763559,-2.649677643,Li2V(PO4)2
mp-626449,-1.922209119,PH3O4
mp-752569,-3.910066822,La3ScO6
mp-685969,-0.045342765,Ag8GeTe6
mp-541875,-1.003263393,K3SnSe3
mp-763182,-2.62244795,Li2VO2F
mp-542654,-1.087487613,RbIn3S5
mp-768755,-2.102155996,Li2Sn2(SO4)3
mp-1006886,-2.001564627,CeS
mp-616821,-0.972131509,U2PbSe5
mp-754614,-3.595230511,LuNbO4
mp-862994,-0.494466749,Pm2CdGe
mp-625652,-1.210909443,H9BrO4
mp-19409,-1.858412159,Mn(AsO3)2
mp-753768,-3.12287038,TbPrO4
mp-20541,-0.789830777,V2P
mp-744268,-1.584157367,CsFeH4Cl3O2
mp-30650,-0.128864071,Mg2Ga
mp-10660,0.03460484,Tm
mp-695452,-2.735403376,K2Al11Si13(Ag3O16)3
mp-768680,-0.744969754,CrP2S7
mp-31665,-2.474852656,LiCr2(PO4)3
mp-4924,-0.534903273,Pr(CuGe)2
mp-554754,-2.1906279,Na2Zn(SO4)2
mp-617442,-0.4482259,RbTa(CuTe2)2
mp-753763,-3.927596283,Ce5Dy2O13
mp-24149,-2.805156381,LiCe2HO3
mp-10520,-3.43672834,LiNdTiO4
mp-23177,-0.427390607,HgBr
mp-764723,-2.331226642,LiFe4(BO3)4
mp-1093,-0.774950572,ThGe
mp-1018021,-0.13335559,NbCo3
mp-862706,-0.306735409,BeCo2Ge
mp-780123,-2.419402221,LiMn3(BO3)3
mp-773965,-2.754738555,Nb2PbO6
mp-767613,-2.642679889,RbVBP2HO9
mp-867310,-0.654906661,CeSnAu2
mp-621825,-3.543516894,Y6Pb8OF32
mp-773017,-3.034935075,LiTi2(PO4)3
mp-755350,-1.63188708,BaLaI5
mp-19401,-2.605567741,CrPO4
mp-12185,-2.420014837,LiCu(PO3)3
mp-865961,-0.441666548,K3Bi(AsSe2)6
mp-567413,-0.998563654,TbInPt
mp-772833,-3.973883342,Y2HfO5
mp-721182,-1.208616837,PH11(NO2)2
mp-8487,-0.980548785,CaSbPt
mp-945194,-2.341348577,Na5(SiO3)6
mp-631566,1.114862683,TaAuBr
mp-10343,-0.570954401,Sc2BC2
mp-778925,-1.342776097,Na6CuO4
mp-21010,-0.504768192,PrSnRu
mp-17066,-3.026570758,Y2TeO6
mp-2637,-1.760806974,YSe
mp-1296,-0.366941222,ErB6
mp-862962,-0.311707798,CaLaZn2
mp-39160,-2.945730545,CaTiFe(PO4)3
mp-3032,-3.321388025,RbBF4
mp-28147,-0.358982944,Er4Ni13C4
mp-768250,-2.634224715,LiPrPCO7
mp-667368,-3.275988989,SiO2
mp-758660,-1.504820539,MgP2(H8O5)2
mp-554037,-2.164121407,KU2H5C4O15
mp-34978,-2.965166375,Al2FeO4
mp-155,0,Gd
mp-567492,-0.275917656,Ce2WC2
mp-735504,-2.414971603,KVPHO6
mp-18385,-3.725189644,Lu2Si2O7
mp-755777,-2.913672948,Ce2S2O
mp-505236,-2.538101849,V2Hg(P2O7)2
mp-557640,-1.426660675,Nb3SnS6
mp-781060,-2.645480523,Mn2OF3
mp-29193,-1.884739338,Nb2Se4O13
mp-1429,-0.061346065,SmCo5
mp-9064,-0.820040348,RbTe
mp-11431,-0.483634412,CaGa3Ni2
mp-22960,-0.501311128,YbCuBi
mp-21092,-0.018812896,InNi2
mp-675445,-1.980738139,Sr(YbS2)2
mp-4990,-0.441358436,MnSnRh2
mp-769507,-1.418493735,Li10CoNi9O20
mp-19459,-2.578788031,K2MgV2O7
mp-569,-0.030482025,NdCo5
mp-550433,-2.414134839,BeZnO2
mp-22013,-3.661262908,LaTiO3
mp-753593,-3.14810042,Ti10O13
mp-17689,-2.150974014,Ba4Ir3O10
mp-542967,-1.966747893,SnSO4
mp-979272,-0.607421839,TePdO3
mp-31438,-0.824874105,YZrSb
mp-559274,-1.050938192,Ba21Ge2O5
mp-3748,-2.431928517,AlCuO2
mp-504924,-1.762715637,Cs2Te2O5
mp-756214,-3.713753369,YAlO3
mp-504835,-0.490212141,NbNiAs2
mp-761035,-1.037880475,AgRuO4
mp-542390,-0.446605918,Ho(SiNi5)2
mp-721564,-1.959907948,Na3SiH5O6
mp-542933,-0.180770445,TbMg2Cu9
mp-30998,-1.333975189,Ti(NO3)4
mp-735488,-1.671676873,RbNa3Mo2H18O17
mp-706521,-2.126674767,K2PH3O5
mp-849805,-0.319364949,B12H21C4S2I
mp-19036,-3.275913388,Tm2V2O7
mp-570912,-0.743030492,YbInAu
mp-760421,-0.970526318,Zr6BI12
mp-616327,-0.378105825,In3Te3I
mp-1280,-1.206415857,ErTe
mp-604229,-1.326337807,ZnH3CNO3
mp-705291,-2.657980803,LiCrP2O7
mp-17911,-2.546912884,Ba2ZnO3
mp-760790,-2.127636712,LiCuF4
mp-680436,-0.281352675,Rb2LiSn4
mp-849086,-0.543780316,CuS2
mp-7956,-0.418514067,Na3Sb
mp-980202,-0.978775514,TmGePd
mp-755243,-1.67317497,Li5CuSO2
mp-28989,-0.627278866,Li10BrN3
mp-24216,-1.483678204,ZnHgAsHO5
mp-27936,-2.894445525,Na2SbF5
mp-29817,-0.238090138,GaP2I9
mp-767833,-2.433505721,MnFe(PO4)2
mp-775544,-2.046048495,Ni3Sb(PO4)4
mp-8786,-1.017779198,Zr2NiAs2
mp-780487,-2.240617233,LiMnPH2O5
mp-580999,-1.389964055,Ga2NiCl8
mp-757889,-2.463061448,LiSn(PO3)3
mp-569760,-0.540208509,Dy5Pb3
mp-961645,0.051244308,LiAlGe
mp-9687,-0.485960345,K2PAu
mp-865499,-0.346729786,V2TcOs
mp-962073,0.033128806,KBaSn
mp-11506,-0.090821743,Ni3Mo
mp-975799,-0.160142779,LiZn3
mp-989612,-1.068948129,LaCrN3
mp-12411,-0.325706762,Li2ZnGe
mp-1539,-0.899823185,ZrTe
mp-11108,-0.641579393,SrP3
mp-755056,-1.110299346,CaPbI4
mp-683982,-1.810679474,RuOF4
mp-1788,-1.58370207,As2O5
mp-29402,-0.881484342,KGaI4
mp-989615,-1.22098375,YWN3
mp-558259,-1.836411178,Pr3Si2S8I
mp-723175,-2.224060652,K4CuP6(H4O11)2
mp-866134,-0.128009365,VFe3
mp-7569,-2.76537383,KAsF6
mp-754338,-0.301919401,Ag2O
mp-30435,-0.185418763,BaZn2
mp-778614,-2.324021952,Li4Cr2Ni3Sn(PO4)6
mp-3269,-4.268447183,NaTh2F9
mp-3980,-2.889754123,LiSbF6
mp-1018026,-0.222840073,LiAg
mp-767053,-1.960190539,Li2Co(CO3)2
mp-734194,-1.366494504,BeH8(IO5)2
mp-849798,-0.991704348,AgH36S8Br2(N3O4)3
mp-866196,-0.31749614,Li2PrIn
mp-7385,-3.25968389,K2Be2PbF8
mp-21282,-2.147262361,Na2SO3
mp-4083,-0.355960005,MgCuAs
mp-554231,-2.453756294,Nd5Cu5O13
mp-757158,-3.23871008,LiTa3O8
mp-866003,-1.346296506,ErI3
mp-721279,-1.3330368,H3SNO3
mp-4595,-0.478280806,VFe2Si
mp-7896,-1.234195275,Cs2O2
mp-11465,-0.201967259,Mg5Hg3
mp-570910,-1.879440612,Rb2CrCl4
mp-23659,-2.653946919,Na4Ga3Si3BrO12
mp-779057,-2.361862522,Li2Fe2B2O7
mp-19144,-2.275596602,Rb2W2O7
mp-20123,-0.08351231,Te2Au
mp-5457,-0.249601425,Pr3Co11B4
mp-976727,-1.938189219,PrBiO3
mp-7048,-3.43672653,Al2O3
mp-770691,-2.353825265,Li3AlFeO5
mp-570955,-2.1521402,Na2UCl6
mp-19226,-2.487478386,NaFePO4
mp-640045,-0.17568466,Ti8Bi9
mp-10142,-0.770661235,Ta3B4
mp-22875,-0.840399695,TlBr
mp-29083,-2.519384876,NaErCl4
mp-977140,0.803915959,NaTa3
mp-27430,-2.868169636,Sn2BF7
mp-698476,-0.355094497,H2C3(N2Cl)2
mp-753354,-3.49245862,Eu4O3F7
mp-1571,-0.754020199,PrPd3
mp-20363,-0.619089768,LiGa2Pt
mp-568234,-0.292123852,Na4CaSn6
mp-1018127,-0.206286633,TbSb2
mp-571439,-0.764320866,Ce10Ga5Br4
mp-697757,-2.468746472,LiCr2(PO4)3
mp-9040,-0.834016831,Ca3AuN
mp-560998,-3.278463225,SiO2
mp-556536,-1.320902593,Na2Zr(CuS2)2
mp-680525,-1.012936161,La7P12Pd17
mp-541765,-0.886262817,Ba9(NbN6)2
mp-30974,-1.623227878,CsWCl6
mp-1009488,0.439410849,NiN
mp-637112,-1.487828644,AsS7IF6
mp-504560,-0.615685155,Y2ReB6
mp-568991,-0.380303742,Hf2Al4C5
mp-554416,-1.419485838,Ta4FeS8
mp-1016835,-2.083213318,CaRuO3
mp-572604,-1.218814506,Eu2Re6S11
mp-20408,-0.29071363,InGaTe2
mp-861918,-0.292080421,Sc2TlCd
mp-10516,-0.613732842,Dy6FeTe2
mp-560851,-2.188673451,CsIOF4
mp-9060,-2.126958672,RbPdF3
mp-14002,-0.977097418,Ba4GeAs4
mp-8299,-1.718051007,Sr4As2O
mp-20044,-0.879131783,La(NiAs)2
mp-541412,-3.163683427,CsYP2O7
mp-555296,-3.226825673,YbTaO4
mp-753585,-1.375892534,Li14Fe2S9
mp-760,-0.347765711,FeSe2
mp-17382,-2.880620903,Rb2Si3SnO9
mp-20077,-1.095516837,USe2
mp-982780,0.032916455,K3Cd
mp-30773,-0.23463349,MgNi2Sb
mp-15626,-3.321214883,Rb2NaTiF6
mp-867900,-0.579036184,DyCdRh2
mp-999187,0.765667808,SiHgP2
mp-978974,-0.268770874,SnRh3
mp-560310,-2.75664194,SbPOF8
mp-29888,-1.097325094,Er(ClO4)3
mp-5925,-0.305462362,Nd2MgNi2
mp-567752,-0.140103896,Cs2In3
mp-28759,-1.354022049,Al7(TlS4)3
mp-777471,-2.937704001,Li2FeF4
mp-971975,-1.378467245,SrHgO3
mp-24363,-1.421881227,PH10N2O4F
mp-262,-0.056242646,Na3B20
mp-28539,-0.64035346,Rb3Mo15Se17
mp-37405,-0.760834454,Al5CuSe8
mp-862734,-0.521573876,Pm2ZnSn
mp-6259,-3.23048771,SrLi2Ta2O7
mp-7771,-0.635836798,Sr(CdAs)2
mp-849606,-2.882743285,Cr4OF11
mp-8614,-3.058429777,K3NdSi2O7
mp-754674,-2.111573534,Lu(CuO2)2
mp-985701,-1.457777618,AgAs3H2O9
mp-699888,-2.726346044,Na2TiFe(PO4)3
mp-558852,-2.76991029,FeF3
mp-541522,-2.821199981,Na2Ca(PO3)4
mp-530033,-0.607725012,B8O
mp-551250,-2.299712538,ErBi2IO4
mp-20780,-0.136096038,Tb(MnSn)6
mp-1297,-0.216122471,Tl9Pd13
mp-972274,-0.399256016,Tm2ZnHg
mp-757899,-2.529213769,Li3Sn2(PO4)3
mp-557482,-2.85531346,Ca5As3O12F
mp-570157,-1.721072219,ZrBrN
mp-567852,-0.481443855,SmCo9Si4
mp-554109,-1.005305587,CuSeO4
mp-19254,-2.05637192,FeSO4
mp-11715,-2.734307292,MgSn(BO3)2
mp-721084,-0.601517583,H7IN2
mp-541451,-2.084927351,Ga2(SO4)3
mp-756655,-3.448092566,TiO2
mp-557715,-1.498070749,Cd(AuF6)2
mp-12906,-0.994961019,Sr3CrN3
mp-850969,-2.594808779,LiMnSiO4
mp-13341,-0.604005884,YB4Rh
mp-677195,-2.238486165,Nd10Si10BrN17O9
mp-2624,-0.16197066,AlSb
mp-675880,-0.136985226,Cu2SnTe3
mp-569163,-0.560758697,SmCoSb3
mp-35078,-2.467014583,BaMnO3
mp-763051,-2.715926801,Li2VO2F
mp-23138,-1.72250409,SbPbClO2
mp-643270,-0.303898582,K3ZnH5
mp-16529,-0.330977726,Al6Ru
mp-28085,-2.650385021,KAs2F7