id,band_gap,pretty_formula
mp-18051,3.2856,La2TiO5
mp-697671,2.9967,Ba6Mg7H26
mp-556291,2.1917,Ba3Sn2S7
mp-28146,2.5223,LiGa5O8
mp-555818,1.346,Cu2SiPbS4
mp-560320,5.1425,KBa2(PO3)5
mp-976247,0.7499,H(C3N2)4
mp-8543,0.8607,Na3AlAs2
mp-542678,3.6425,AlAs(H2O3)2
mp-554501,0.6081,Ba5Os3ClO15
mp-28267,0.2768,Na7Al2Sb5
mp-9166,3.759,MgCN2
mp-9089,2.175,CsTmS2
mp-29107,1.0159,Rb2Hg3Te4
mp-30224,5.581,Si3(Cl4O)2
mp-775753,1.5478,MnSn(PO4)2
mp-733613,3.7314,H6AuBrN2
mp-774189,2.9742,Li8Mn7Fe(BO3)8
mp-7631,2.039,SiC
mp-765521,2.1128,LiVOF3
mp-556210,2.2747,Bi2CO5
mp-754134,3.5766,HfZrO4
mp-772516,2.8169,LiCoPO4
mp-1779,1.4688,YbTe
mp-775161,0.5532,Li2Ti3VO8
mp-29922,3.1376,Sb5PO10
mp-766352,3.6892,BaCa2I6
mp-705056,1.9607,LiVP2O7
mp-571414,6.1917,KNa(BH4)2
mp-530728,2.5325,Sc11Nb3O24
mp-29035,1.812,Sr(YS2)2
mp-699485,3.3708,AlH12(NO5)3
mp-778830,1.4638,Li10Ti2Fe3Co3O16
mp-4929,7.9328,KBF4
mp-35432,0.4348,Cr2FeO4
mp-556423,4.45,Na2Si2O5
mp-560715,2.6985,Sn5(PO5)2
mp-32899,1.9737,Li2S
mp-4165,1.9292,TaNO
mp-557340,2.501,Ge3Pb5O11
mp-14323,3.2561,Ba3Ho4O9
mp-626114,1.882,U3(HO5)2
mp-558267,5.2406,NaLiSiB3HO8
mp-961661,0.7495,ZrSiPd
mp-1569,1.1856,Be2C
mp-776768,0.6532,Li4V5Fe3O16
mp-645592,1.2672,Nb3(BiO3)5
mp-755595,3.0374,Er2TiO5
mp-560028,2.2528,UTe6(OF5)6
mp-775153,3.0926,Li3FeOF3
mp-684747,1.6863,Bi2O3
mp-625630,2.1452,TeHO3
mp-558062,2.4831,K6Ti2S6O
mp-758447,0.217,LiTi(PO3)4
mp-571084,1.5308,MnBr2
mp-755363,0.4224,Ba3SiO
mp-28167,0.6811,Th6CoBr15
mp-23621,4.6288,NaBi(PO3)4
mp-867605,1.2982,Y(Bi5O8)3
mp-542041,5.4212,PH7CN2O5
mp-28670,2.0078,Ba2Bi2O5
mp-556172,3.1191,SiPb4(BrO)4
mp-4589,5.6504,PrPO4
mp-754624,5.6577,Al2O3
mp-11008,2.1311,BaPSe3
mp-740718,5.0335,AlH6N2Cl3
mp-850814,2.7685,NaSbO2
mp-12337,0.5217,NaLa2OsO6
mp-8812,5.9669,Rb2GeF6
mp-28475,2.8416,H2Pb3O4
mp-560085,2.1162,Bi24Cl10O31
mp-19219,4.0385,Li3VO4
mp-707195,4.7723,KSiHO3
mp-583454,2.2962,Nb2Bi2PbO9
mp-891955,2.3164,Ca10V6O25
mp-30904,0.643,Ba3(CrS3)2
mp-568082,1.5853,La3CuSiSe7
mp-568365,2.2583,Li6Br3N
mp-6495,3.0553,BaEr2ZnO5
mp-753163,2.2407,HoIO
mp-18806,3.0462,Ni3(BO3)2
mp-770610,1.6855,Li2AlCoO4
mp-779313,0.3998,Li7Mn8(BO3)8
mp-752435,4.5265,DyTmO3
mp-19332,0.9671,BaGd2NiO5
mp-774941,0.7825,Li(NiO2)2
mp-28538,4.1943,SiH3I
mp-10322,1.2561,BaHfN2
mp-438,0.7596,Nd2S3
mp-19276,4.0831,BaMoO4
mp-721238,3.2726,Li10Sn(PO6)2
mp-30231,4.4001,RbGaCl4
mp-28875,1.1273,Hg2P3Cl
mp-755738,1.6455,Rb2O
mp-780298,2.9777,Li8Mn7Fe(BO3)8
mp-644318,0.0938,NaV3H6(SO7)2
mp-754283,4.5226,HoHO2
mp-763517,0.7537,Li4Ti3Co3(NiO8)2
mp-754206,2.7237,LiBi3(ClO2)2
mp-23635,1.4309,TlRe6Se8Cl3
mp-722527,5.3941,AlH11SO10
mp-505551,3.3204,InPH2O5
mp-19400,3.368,Sr2NiWO6
mp-774249,0.559,Li3MnCr2O6
mp-554146,1.8343,K14In4O13
mp-32850,1.656,Tm2Se3
mp-627601,1.5721,AgSbS2
mp-559025,1,BaErAgS3
mp-772916,2.4533,Ba3(LaI6)2
mp-775448,2.8264,Li2Ti3NiO8
mp-14550,2.127,TiCdO3
mp-776010,0.5404,Cr2Fe3Cu(PO4)6
mp-30250,2.4155,YAgO2
mp-642792,3.023,BaBi2(MoO4)4
mp-768093,0.9283,VSO4F3
mp-29097,1.9357,Hg3TeBr4
mp-27811,3.4818,Li2Te2O5
mp-780387,4.5175,YbHfO3
mp-1013911,3.0679,Na2CoP2O7
mp-557585,5.6749,Lu(PO3)3
mp-634676,3.2295,KHS
mp-540920,5.1324,CaP2H20C4(N2O3)4
mp-5431,2.7136,BaTeO3
mp-677627,3.1317,Li3Nd3(TeO6)2
mp-570079,0.8542,Al5C3N
mp-554859,2.2108,KGeAuS3
mp-3081,6.1181,BeAl2O4
mp-756323,1.2789,Li2CuAsO4
mp-675654,0.7789,Cd2Bi6O11
mp-560411,1.5575,CdSb6(S2I)4
mp-776761,2.1585,LiCr(SO4)2
mp-770694,0.7777,Li6Cr2O7
mp-767576,1.2201,Li6MnO4F
mp-674521,2.8761,Dy2TiO5
mp-31065,3.8071,Sc2(SeO3)3
mp-606510,1.1834,CsTaI6
mp-1266,2.0162,Na2Se
mp-18942,2.7488,VP2O7
mp-541827,4.0533,Ba2Zn7F18
mp-31304,1.0223,Zr(TeCl)6
mp-38916,5.0725,Y3Pb4F17
mp-696384,0.5887,K2CuH4(Cl2O)2
mp-770152,0.6264,Li4Ti2Mn3Cr3O16
mp-1019896,1.4499,La5S4NO2
mp-770491,2.4289,Li3AlNiO4
mp-776479,2.7575,BaYI5
mp-634418,4.4883,NaCaSiHO4
mp-27758,4.0814,AlTl2F5
mp-558920,2.4098,NaNbO3
mp-1427,4.0233,Lu2O3
mp-14743,1.965,Ba3WN4
mp-18157,5.7876,SiP2O7
mp-28328,1.8574,RbI3
mp-707879,0.2089,K2Cu5H8(Cl4O3)2
mp-767076,3.7528,Sn(PO3)2
mp-765701,1.5159,Li4V3FeO8
mp-12932,3.993,TbTaO4
mp-22945,0.7764,TeRhCl
mp-769484,0.9045,NaMnPCO7
mp-28380,1.4614,Rb3TlO3
mp-8311,0.3312,Si3NiP4
mp-29091,1.426,Ti(CuS)4
mp-14396,5.107,Mg3(PO4)2
mp-776452,1.8279,Ca2Ti6N2O11
mp-675846,4.8473,Ca5ThF14
mp-11327,1.7968,Rb2Se
mp-12454,1.6293,ErCuS2
mp-625159,4.888,H3ClO5
mp-27421,2.6172,RbBiF6
mp-764837,2.4817,Li2VOF4
mp-554669,3.4922,Ba3Ta2CdO9
mp-779065,0.5897,Li2Mn2CoO6
mp-705486,0.7648,U3Cu2H10(CO10)2
mp-686585,1.6004,K6Al11Si13Ag5O48
mp-761143,0.2717,KLiSb(PO4)2
mp-8190,2.2341,Tl2SiS3
mp-646878,1.1714,In4SnS4
mp-706709,5.5562,Al4P3(HO5)3
mp-19003,2.363,MgV2O5
mp-1020162,4.7313,Na4Mg3P4O15
mp-698361,0.81,CuH36C8(N5O4)2
mp-558374,5.5665,SiO2
mp-777945,1.4776,TiMn4O10
mp-13875,2.8746,Al8(Pb3O7)3
mp-561543,7.9633,BeF2
mp-866713,2.3274,ReTeSCl4
mp-559644,1.929,K2Cu(PS3)3
mp-560082,3.7385,Ho2Ge2O7
mp-549728,1.2624,DyZnPO
mp-23556,1.3229,Rb3Mn2Cl7
mp-773120,0.5726,Mn3CrO8
mp-779125,5.3851,DyP5O14
mp-568557,2.4442,RbTaN2
mp-622122,0.2635,U2(P2O7)3
mp-37614,3.4759,Al2NiO4
mp-543040,3.7634,Ga2Te3(HO2)6
mp-755779,2.1812,CaLaI5
mp-505448,0.3845,NaHfCuSe3
mp-28327,2.9371,LiGaBr3
mp-696088,1.7147,Sb2H20(Cl4O3)3
mp-18313,4.3766,SrSiO3
mp-756983,0.3317,Li10Cu(SiO5)2
mp-531811,1.357,Ho2CdS4
mp-863420,4.0445,Rb4H4C3O10
mp-850213,4.2518,Yb4Br6O
mp-769344,3.3706,Ba4Ta2O9
mp-555763,2.0639,ZnS
mp-1020706,4.9341,SrY2Si3O10
mp-556339,1.7517,Hg3AsO4
mp-753156,2.9261,La2Th2O7
mp-776165,0.2461,AgAuO3
mp-19086,0.3967,BaCoO2
mp-770474,1.8777,La4Ti3O12
mp-17447,3.544,Sr10P6SO24
mp-6995,4.4464,SrAl12O19
mp-573812,1.3884,Cs3As11
mp-505799,3.4156,P2Pb3O8
mp-14827,3.3329,Li7NbN4
mp-30129,2.676,Li4TaN3
mp-4575,2.9034,MgGeO3
mp-768747,2.3887,Li7Bi(BO4)2
mp-11887,1.8429,K2U3(TeO7)2
mp-778252,0,V5O12
mp-705331,0.2933,LiNiP2O7
mp-571286,1.8184,SiC
mp-17765,3.0687,Ta2ZnO6
mp-8704,1.4219,K3SbSe4
mp-540731,5.2211,MgB4(H9O8)2
mp-559005,3.8417,NaAsH4O5
mp-542233,1.4712,Rb3As11
mp-556025,4.3106,MgH8C2S2(NO2)2
mp-19434,1.6754,Pr2NiO4
mp-23090,2.5146,La3Si2S8I
mp-562490,5.6052,SiO2
mp-16609,0.7244,Si3Os2
mp-3694,2.2595,NdPS4
mp-13843,2.2672,Li2TeO4
mp-17661,5.3003,RbNd(PO3)4
mp-6980,0.8817,ScCuS2
mp-27404,3.0446,As3(HO2)5
mp-4769,5.8067,SiP2O7
mp-764341,2.3129,Li3FeSiO5
mp-984729,2.5111,BaSr3O4
mp-554517,2.0525,NaMnF4
mp-33940,1.1603,Mg2PtO4
mp-759413,4.0776,ZnPH4NO4
mp-24338,0.6792,Sr5As3H
mp-31034,6.5408,ThF4
mp-704634,0.8896,Ba2Nd2Fe4O11
mp-6231,3.3733,Ba2ErSbO6
mp-29391,1.8355,SbCl3F2
mp-1018091,0.2395,CaGaSnH
mp-720718,4.9559,CaMgB6(HO)22
mp-29509,3.5232,Zn(AsO2)2
mp-867359,1.6531,AlTlSe2
mp-568385,1.8404,SrLiGaN2
mp-753719,1.799,SrLiNb2O6F
mp-556228,4.7135,Na5Ca4P4O16F
mp-697653,5.9988,MgH8(NF2)2
mp-8203,1.556,Zr(PS3)2
mp-561222,1.9283,K2HgBr2(NO6)2
mp-6661,3.065,BaTi(SiO3)3
mp-556999,4.2968,ErSeO3F
mp-21510,0.6237,K2NaInAs2
mp-651726,3.5824,Ni3P4PbO14
mp-683936,1.233,Ba4LaGe3SbSe13
mp-5342,0.9598,GaAgS2
mp-7392,0.6758,Na2AgSb
mp-7765,3.5418,Ba3SiO5
mp-7049,0.6126,ZrTlCuS3
mp-669317,2.7925,Cs3CdI5
mp-22007,1.2817,CsIn5S8
mp-675672,3.6475,Zr5Sc2O13
mp-771385,3.2836,Na3MnPCO7
mp-18296,3.3701,Ba5Dy8Zn4O21
mp-777894,2.5428,LiVF3
mp-557711,2.381,K3Nb3(BO6)2
mp-780114,2.0539,LiVSiO5
mp-35695,2.4721,Li2HN
mp-754237,4.3153,LiTmO2
mp-1001034,0.7432,Mg(InSe2)2
mp-569308,1.4093,Bi2(PSe3)3
mp-776356,1.4737,Li2SbS2
mp-733468,4.5325,K2PHO4
mp-524,1.1757,Ba3As14
mp-10955,0.2722,Sn(HgSe2)2
mp-961682,0.4713,TiSnPd
mp-763481,1.8998,Nb2CoO6
mp-12231,2.9251,SnTe3O8
mp-4661,4.4825,ScOF
mp-569386,1.905,P3NCl12
mp-16025,5.6995,Y2(SO4)3
mp-773519,3.4465,Li4Mn3Fe(PO4)4
mp-973966,3.0477,LiIn(IO3)4
mp-764355,2.9497,LiFeSiO4
mp-17872,0.8063,Ba(YTe2)2
mp-675784,2.8564,H(CO)2
mp-779463,5.4333,Dy2P4O13
mp-772221,2.4874,Ba5La3I19
mp-774742,4.6105,Li3Sc2(PO4)3
mp-17854,2.2778,LiInGeO4
mp-17964,1.4023,Na2Ge2Se5
mp-8059,5.5887,SiO2
mp-775322,1.4937,Li5Fe8(BO3)8
mp-23108,0.5009,Cs2NaUCl6
mp-18756,2.2826,BaTm2NiO5
mp-560519,4.9085,Ba3ScCO3F7
mp-5811,3.0475,CsPbF3
mp-504422,3.5741,H7NO6
mp-779456,0.8622,Y2ReO5
mp-762820,0.9054,LiV2(SiO4)2
mp-961693,0.4768,ZrInAu
mp-736390,2.8388,SrH3C3O7
mp-642795,4.5578,PHSF2
mp-767773,1.3506,Li4V3Fe3(TeO8)2
mp-28711,1.275,Sb2S2O
mp-765804,3.5211,Li6VF8
mp-542567,3.2715,Rb2Cd3H6S3O16
mp-695409,1.1215,Ba7Na3Ti7Nb3O30
mp-753939,3.4879,LiSnPO4
mp-7477,3.6679,RbErO2
mp-554151,5.7171,SiO2
mp-867690,0.5899,Li2CuF5
mp-14367,2.002,AsPO5
mp-559291,2.3096,Sn2PCO6
mp-762649,0.5579,Na3LiMn5O9
mp-770239,2.9093,Ba2Ta2O7
mp-22956,1.449,K2PdCl4
mp-770688,1.3923,Li4CrO5
mp-3953,5.0016,CaCO3
mp-27727,4.5842,CCl2O
mp-9986,1.3879,CsAuO
mp-771160,3.3651,Rb2MgH4
mp-19179,2.5881,Ba2V(SiO4)2
mp-28394,1.5514,Tl2PSe3
mp-759117,3.8113,Li2SbP3O10
mp-18458,0.3644,Sr5(SnP3)2
mp-768227,3.2582,DyNbO4
mp-776387,0.3709,Ti2N2O
mp-733509,3.2562,Na2TiSi4H4O13
mp-2074,0.7159,Li3Sb
mp-4763,1.3642,ZnSiP2
mp-705355,1.5914,Li2Mn(PO3)5
mp-697144,1.9001,RbH2N
mp-1726,0.6217,KO3
mp-764299,1.8152,Li2VFe(P2O7)2
mp-556582,0.4893,Cu(IO3)2
mp-866810,2.4427,Ca2SnS4
mp-774352,0.9094,Li3Co2(PO4)3
mp-626724,3.839,LaHO2
mp-7198,2.1482,SrPSe3
mp-556169,4.2704,YSeO3F
mp-555952,4.4456,Sb4RuC6(O3F11)2
mp-23034,4.3004,SrZnCl4
mp-553875,0.5502,Zr2SN2
mp-776657,3.016,Li2Fe3F8
mp-777469,0.7147,VO2
mp-771126,3.1632,Lu2TiO5
mp-31050,3.6544,Cl2O7
mp-19174,2.3769,BaMnV2(AgO4)2
mp-29484,0.6976,K4HgAs2
mp-558573,3.9604,Y2O3
mp-1070,0.5718,CdSe
mp-625274,1.8682,H5IO6
mp-27234,0.3326,Cu(IO3)2
mp-861871,0.8854,SeI2
mp-23360,3.185,Zn(IO3)2
mp-558808,4.9005,LiAl(SiO3)2
mp-6509,3.6802,Sr3GaO4F
mp-768342,1.1539,SrNb2O4
mp-28611,2.659,ThTa2O7
mp-11165,4.736,Na2MgPO4F
mp-721053,1.7375,Hg3H4S2O11
mp-754625,1.0806,SrTaNO2
mp-23100,1.9167,Sr2LuBiO6
mp-18863,0.2515,PrCrO4
mp-1020161,5.2302,Na3Al2(PO4)3
mp-755654,0.2807,NaSb3O8
mp-768500,3.1012,Sb2(SO4)3
mp-942702,3.9079,LiMnSO4F
mp-20893,0.9727,GeO2
mp-41109,3.6344,Ca3Er3Ge2BO13
mp-770495,0.6725,Li4Ti2Mn3Fe3O16
mp-9158,0.3752,LiCuO2
mp-18925,2.4009,Li6CoO4
mp-706447,3.6824,La2Mg3H48(NO5)12
mp-23221,3.4284,PrBr3
mp-559969,3.4597,CaLaGaO4
mp-6524,4.8291,CaMg3(CO3)4
mp-24262,5.3651,KP(HO2)2
mp-6246,5.14,Ca2CO3F2
mp-31076,2.1668,Tl2TeBr6
mp-684011,0.6649,Eu8C4I9N7
mp-27419,2.5316,LiBiF6
mp-558740,1.8153,Dy3CuGeS7
mp-39003,4.3128,Mg3Al14O24
mp-676556,2.3096,Sm2Zr8O19
mp-755323,5.1688,DyClO
mp-676975,1.1162,Ba3Na7Ti3Nb7O30
mp-24356,3.539,CdH4NCl3
mp-555977,1.5006,Rb2ZnO2
mp-10919,1.2384,Rb2PtC2
mp-759223,2.3798,Sn(SO4)2
mp-568170,4.293,TbCl3
mp-554183,2.5452,ZrHg3(SCl3)2
mp-764459,1.8891,Li3Fe4(BO3)4
mp-28346,3.2823,SrSe2O5
mp-15802,1.4057,Tm2MgSe4
mp-557181,4.0481,K3Na3(NO4)2
mp-18378,2.1198,K3AlTe3
mp-974713,3.2633,K2H4Pt
mp-504532,3.3386,As2W2O11
mp-778513,3.9823,LiFeF4
mp-3635,5.226,LiBO2
mp-755770,1.8583,Ba2LaI7
mp-556748,2.8404,CaCrF5
mp-779890,2.7228,Li2MnFe(BO3)2
mp-531459,3.3268,MgAl2O4
mp-703528,5.184,RbP(HO2)2
mp-768208,1.4474,Li3SbS4
mp-582081,4.9486,Cs3NdCl6
mp-675283,6.0544,TlPF6
mp-9028,2.1042,PrBN2
mp-557432,1.7275,GeClO2F5
mp-13614,5.2365,Rb2Be3Cd2F12
mp-634059,2.8026,H4CSN2
mp-15016,2.3928,Nd4Si2Se3O7
mp-19483,2.5747,TmFeGe2O7
mp-765036,0.533,Li2MnOF3
mp-567681,2.8891,CsPbBr3
mp-768797,3.2686,Li3Bi(BO3)2
mp-6091,4.8197,BaAl2(SiO4)2
mp-641917,3.3368,ZnSiO3
mp-619546,2.479,Cs2HgBr4
mp-560354,1.9071,SbCl(OF3)2
mp-504814,1.043,Sb2Pb2S5
mp-704604,3.0967,Zr(MoO4)2
mp-554812,0.4231,CuB2(PbO3)2
mp-8878,6.3781,Sr(BO2)2
mp-18933,4.3092,Li2WO4
mp-540876,4.5924,KTh2(PO4)3
mp-19472,2.5649,Rb2MnV2O7
mp-6632,4.2356,Ca5B3O9F
mp-35539,1.3731,Zn2GeSe4
mp-771431,0.6739,Cr3Sn3(SbO8)2
mp-9490,0.5872,KAg2SbS4
mp-554343,1.2114,K2CuSbS3
mp-4599,1.3566,Ce(TeO3)2
mp-863961,3.9025,SrNi2P2(H2O5)2
mp-554108,3.1461,LiRe(OF2)2
mp-8275,1.3964,CdGeO3
mp-1771,2.7031,NO2
mp-721303,5.6926,LiBeH5(NF2)2
mp-18670,0.2424,Ca5(SnAs3)2
mp-559303,0.4987,MoS3(NCl4)2
mp-17363,3.2309,BaHo2O4
mp-769469,0.6371,NaMnPCO7
mp-20652,1.9099,PbF3
mp-8232,6.2686,BaZrF6
mp-181,0.2739,KGa3
mp-7583,3.2535,SiS2
mp-30977,3.015,B5H6Br
mp-9268,0.7601,KSe
mp-644277,0.978,Fe2CuH4(OF4)2
mp-13948,7.2288,Cs2HfF6
mp-31931,2.7244,LiMn4(PO4)3
mp-754969,4.3469,TmBrO
mp-20726,0.2966,SrCaSn
mp-542463,5.1644,Mg(AlCl4)2
mp-772193,4.2352,La(HO)3
mp-1013555,0.4183,Sr3AsN
mp-779353,3.135,Li3Fe5OF11
mp-542129,5.2653,CsAlBP2HO9
mp-677649,2.0729,SrLa9MgGa9O29
mp-5409,4.3268,Y4Al2O9
mp-680015,1.3152,Re3(SeBr)7
mp-29295,1.0415,Sr3Sb4S9
mp-3273,5.5931,Si5P6O25
mp-753799,2.7907,CsTmO2
mp-627993,0.2927,LiV2O5
mp-706715,4.9948,Na5P5(H9O7)2
mp-755781,3.9277,TbNbO4
mp-559590,3.9887,PrGeBO5
mp-766135,1.0353,Sr6Bi2O11
mp-15803,1.3007,Y2MgSe4
mp-6525,3.355,NaSn2(PO4)3
mp-573030,2.4625,Cs2LiNbS4
mp-20396,1.4814,RbCa2Nb3O10
mp-555207,2.9936,BN(OF2)2
mp-776978,0.3605,Li4Mn3V3(SbO8)2
mp-775280,1.4596,Li5Fe8(BO3)8
mp-996961,1.1962,LiAuO2
mp-640885,0.3839,Er(CuTe)3
mp-780191,0.6603,Li4Co3OF11
mp-759722,6.4646,SiH8(NF3)2
mp-775762,2.1105,AgPO3
mp-698616,0.6983,Rb3FeF3
mp-13975,2.1881,Er2SeO2
mp-567148,0.9962,Cr(B3H8)2
mp-19132,2.2178,HgWO4
mp-573635,1.3946,Ba2In2Se5
mp-1020703,3.5041,SiGeN2O
mp-769204,0.3612,Li7CuAs4ClO14
mp-574571,5.0168,Rb3YCl6
mp-706283,3.9317,InH7N2OF4
mp-559848,4.9533,Li4SiO4
mp-8324,2.5654,Dy2S2O
mp-505168,1.5247,DyCu(WO4)2
mp-14620,0.6579,Tm2CdSe4
mp-557328,2.4677,Li3Zn2SbO6
mp-29143,1.4715,Na3VS4
mp-569225,1.8469,Mo6PbI14
mp-698114,2.9596,Ba2AlH7
mp-7950,0.769,ThSeO
mp-15743,2.2283,Sr2CeO4
mp-2657,1.781,TiO2
mp-763985,0.7969,Cr4OF11
mp-540690,0.1215,CsV2O5
mp-689967,1.6187,LiMn(PO3)4
mp-752450,2.5702,Ba2SrI6
mp-768887,5.247,Y(BO2)3
mp-755367,0.883,LiTa2CuO6
mp-18037,2.7779,LiNbZnO4
mp-768085,0.5282,Na2MnPCO7
mp-600174,3.0104,H4Pb(CO3)2
mp-771127,2.8883,Rb4TiO4
mp-554076,2.181,BaLiBS3
mp-763255,1.3705,LiCoSiO4
mp-780315,0.9358,Li4Cr2Fe3O10
mp-761675,0.6014,Li2Cr3CoO8
mp-758302,1.4702,LiAgF2
mp-15786,2.3505,KHoS2
mp-6564,4.4959,Sr2MgSi2O7
mp-13984,1.7832,CdPdF6
mp-17244,2.0933,Ba2ZnGe2S6O
mp-752406,2.1702,Rb3TmO3
mp-763169,1.4377,V2(OF)3
mp-554009,5.0503,Er4Si3O11F2
mp-768203,5.3418,BeH2
mp-26247,1.794,Li5Cu(PO4)2
mp-13065,4.2394,Ho2O3
mp-773515,1.5961,Te3WO12
mp-849533,2.7654,TiO2
mp-775969,1.0461,V3Cr3(WO8)2
mp-23486,0.7255,RbNiCl3
mp-559254,1.8883,Rb2U3(IO5)4
mp-559928,5.4895,SiO2
mp-32311,3.893,Re2NiO8
mp-758693,4.3175,Na4Al4H10O13
mp-23933,2.1855,AlH3
mp-17186,0.7296,Ca3AlAs3
mp-770643,3.9398,GeWO4
mp-757666,5.1432,CaB5H3O10
mp-8857,0.9631,Cs2As2Pd
mp-29282,1.5013,P2PtO7
mp-29529,0.6056,NaSnP
mp-574224,1.8366,Cs4SiTe4
mp-850920,0.284,LiMn4(BO3)4
mp-674374,0.7993,In11(SbO8)3
mp-35493,0.8255,Zn2SnO4
mp-768285,3.9903,Be2GeO4
mp-763098,4.0072,Li2MnF4
mp-669367,5.4996,KAl(SO4)2
mp-715557,0.7341,W3O8
mp-557786,2.4732,CaNb2P2O11
mp-679958,3.4964,Na3Nd2(NO3)9
mp-675614,0.8128,K2In12Se19
mp-7648,5.3774,SiO2
mp-776357,3.755,Li2SbP(OF3)2
mp-706594,2.1173,U2H14S2O19
mp-690684,4.5838,Na2BH4ClO4
mp-763910,1.0549,Li4MnFe3O8
mp-582483,4.9453,Na2Th(PO4)2
mp-11112,4.9866,Tb(BO2)3
mp-7645,5.5292,KAl(SO4)2
mp-8709,2.3077,KIn(GeO3)2
mp-706477,1.928,La2Si2O7
mp-18772,2.2044,Na4Mo(NO)2
mp-763247,1.7661,LiVSiO5
mp-760509,1.1457,LiCuCO3
mp-616175,1.2807,EuSO4
mp-14963,2.6631,Pr3NbO7
mp-570703,5.4214,Ca(AlCl4)2
mp-863857,0.5298,Mn3Co3(SbO8)2
mp-23835,2.7644,HgH12C2(Br2N3)2
mp-754262,1.7692,Zn2As2O7
mp-605646,3.8292,RbBa2N15
mp-558351,5.5128,SiO2
mp-989536,2.7104,Cs2LiNF6
mp-755698,5.3252,HfP2O7
mp-29880,3.4939,Sm2SCl4
mp-540421,4.1724,Li2MnP2O7
mp-581887,2.8342,Ca2As4Xe5F34
mp-556282,2.0183,Ba2AlInO5
mp-866811,0.7674,CaSnS3
mp-650178,1.4033,Se5SO3F
mp-9640,0.4113,SrCu(SeO3)2
mp-680145,2.3355,CdI2
mp-17060,2.2333,NaAlSe2
mp-18008,1.3556,Ba2HgS3
mp-561336,4.9178,Li2Mg2Si4O11
mp-6873,5.2058,CaAlSiO4F
mp-735484,4.1181,CrP2H17N4O9
mp-760014,3.6756,LiSbF4
mp-17605,5.3018,CsNd(PO3)4
mp-570531,2.4273,NbP2NCl12
mp-31043,6.8979,H5NF2
mp-23844,1.4508,HgHOF
mp-14715,1.7725,Pr2Au5F21
mp-675124,0.2407,In4SnS8
mp-554459,1.2752,Pr6S4BrN3
mp-555554,4.553,KGa(PO3)4
mp-769391,3.1559,Ba4ZrO6
mp-763835,1.1119,V3Cr3(TeO8)2
mp-769290,0.2028,LiCuPO4
mp-1019889,5.3235,KSi2BO6
mp-764645,1.4084,Li3MnF7
mp-556413,2.7504,Na4Cd2Si3O10
mp-754109,3.7516,PrAsO4
mp-755374,2.5953,Sm2TeO6
mp-780581,0.1358,Fe4O3F5
mp-14047,2.9554,Al2Cd3(SiO4)3
mp-961683,1.8136,LiMgP
mp-556346,3.3438,Pr(IO3)3
mp-542058,1.3114,Tl3B3Se10
mp-744239,1.4421,Fe5P4(H3O10)2
mp-695325,1.9898,Ti5ZnBi2(Pb2O9)2
mp-757758,2.5154,LiTi3Nb(PO4)6
mp-770065,3.1631,Gd2TiO5
mp-559799,3.4826,KGd(PO3)4
mp-1019792,4.4728,K2ZrSi2O7
mp-557926,2.3694,CdAs2(XeF5)4
mp-28034,0.6893,Cu2P7
mp-767701,1.0713,Mn2VFe3(PO4)6
mp-720197,2.4273,K4GeH4N2O3
mp-26129,3.9648,LiBiP2O7
mp-11792,0.7446,PrCuSe2
mp-722774,1.9766,Ba3As2H14S8O7
mp-570173,2.4615,K2SnCl6
mp-10559,1.5191,Gd3AuO6
mp-15073,4.282,BaSmC2O6F
mp-18637,0.3099,Na2Cu3(GeO3)4
mp-28744,0.7104,Y4OsBr4
mp-781880,3.445,Ba9La5Cl33
mp-779164,1.0628,Li4Fe2Ni3Te3O16
mp-775863,1.6616,Zr2N2O
mp-768382,3.7015,La2Al4O9
mp-643074,5.2237,Cs2P2H2O7
mp-23991,5.4258,H6S(NO2)2
mp-15385,2.1753,Na2UP2O9
mp-505234,4.3622,BaP2PbO7
mp-558629,4.004,Ba2ZnSi2O7
mp-754208,2.5533,ErInO3
mp-626502,4.9834,Al(HO)3
mp-642807,1.7417,TbH2Br
mp-765959,4.5964,NaPH3C2N3O4
mp-23013,1.7154,U(ClO)2
mp-568591,0.2612,La3CI5
mp-559545,3.4283,SeO2
mp-33297,2.5845,Mg2TiO4
mp-755459,0.3098,Rb2O
mp-758944,4.4256,LiBi(PO3)4
mp-18150,4.9447,K3Lu(PO4)2
mp-961684,1.8116,LiCaAs
mp-776639,0.7364,Li4Ti3Cr3(FeO8)2
mp-37216,2.3364,CdPbF6
mp-610738,2.3863,Zr(InBr3)2
mp-771772,5.8298,Lu4(B2O5)3
mp-560923,2.4101,AgPb4ClO4
mp-777684,2.6362,LiFe2F5
mp-10223,0.9637,Na2PdS2
mp-676305,2.1564,Mg4Sb2O9
mp-12159,4.4907,Na2PO3F
mp-558335,1.9481,Na2Pd(NO2)4
mp-699136,5.0447,NaAlH2CO5
mp-767625,2.279,LiVF4
mp-774358,0.4712,Li2MnV(P2O7)2
mp-562434,3.7919,Cs3Ta5O14
mp-862868,2.5844,PbBr2
mp-961657,0.601,YNiP
mp-7434,0.6332,NaCuTe
mp-778791,1.3311,Fe4OF7
mp-15668,0.4799,NaSe
mp-29449,1.7887,Rb4Cu5Cl9
mp-556264,4.134,KRb2CrF6
mp-1018093,0.5029,CaGaGeH
mp-863362,2.4138,LiTa3O8
mp-556237,7.164,KLiYF5
mp-775822,1.6777,Zr2N2O
mp-14652,0.9865,Cs2P3
mp-1019606,5.4237,Cs2Li2B2P4O15
mp-706616,4.8555,ZnH8(O2F)2
mp-1020024,4.8958,Li6B4O9
mp-42458,4.9906,SrAl3P2(HO2)7
mp-6955,2.6817,KGeNO
mp-402,1.4389,CdP2
mp-18433,3.5892,NdTaO4
mp-6228,3.2385,Na2TiGeO5
mp-684911,0.9171,Sm2Te3
mp-32669,1.3023,Ag2S
mp-27968,3.8132,Li6Ge2O7
mp-510018,0.5613,Rb2CuH12(SeO7)2
mp-775489,2.0681,CrP6(WO8)3
mp-15645,0.5351,Ag8SnS6
mp-642313,4.1596,K3Y3(BO3)4
mp-27294,1.6657,Ca3AsBr3
mp-782655,3.8659,LiFeP(H6O5)2
mp-654129,1.4987,GaAg(PSe3)2
mp-560929,4.0586,Na3CrF6
mp-761010,2.5895,TiP2O7
mp-7827,3.0351,K2Ni(CN)4
mp-780119,0.4536,V6O11F
mp-30145,0.5645,Rb2Bi8Se13
mp-645799,2.2786,VP2Pb2O9
mp-16980,4.5945,Rb2B4O7
mp-620372,0.8371,Rb2Se5
mp-706278,5.5321,CaP2(H2O3)3
mp-581376,1.4725,Tl3Ag3(SbS3)2
mp-706386,5.3848,ZrH6O3F4
mp-622258,2.7545,RbV2SbO8
mp-34141,2.2358,Sr(LaS2)2
mp-734042,3.5073,MgH12(NO6)2
mp-761827,1.2115,Na3CuO3
mp-504580,0.6929,VCuO3
mp-667310,5.4284,AlPO4
mp-24657,4.8354,ZnBP2H4NO8
mp-550070,0.9072,NbBr2O
mp-24428,2.0569,KH2N
mp-696746,1.5112,B4C
mp-556525,2.5383,BaNd2PtO5
mp-2576,0.3776,Sr2Ge
mp-5575,3.257,GdTaO4
mp-555552,5.0688,KNaSO4
mp-571035,0.5202,OsCl4
mp-776463,2.6277,Ba3(YI6)2
mp-694890,1.4694,NaCaFe2(SiO3)4
mp-744702,2.7805,MoH6NO3F2
mp-677262,2.5931,KInI4
mp-707453,4.6398,K5NaP3(HO4)3
mp-4531,2.9553,NaNO3
mp-557009,2.0314,ZnS
mp-976726,4.566,LiDyO2
mp-704203,1.8206,Li2VP4O13
mp-505424,1.1257,VCdCuO4
mp-849779,3.9631,LiSi6BiO14
mp-3552,5.24,Li2Si2O5
mp-10402,3.8773,TiTl2F6
mp-753009,1.7102,Li2AgF3
mp-23660,4.3544,KNa22C2S9ClO42
mp-29903,4.4588,TlTeF5
mp-23183,4.3052,NdCl3
mp-4734,4.967,NaPO3
mp-542331,3.6277,Zn2P2O7
mp-8001,6.1195,LiAlO2
mp-981379,1.6798,Zn3CdS4
mp-29596,2.4559,Ca3AlN3
mp-721171,4.9182,CsMgH12(ClO2)3
mp-11116,2.0855,CsYCdSe3
mp-545598,1.9428,UCdO4
mp-781897,2.2376,Gd3NbO7
mp-752725,1.2741,LiAgF2
mp-29611,5.4263,B5H8
mp-626500,4.5766,Al(HO)3
mp-541436,2.8427,NbTl(PO4)2
mp-18651,2.1468,Sr3DyRhO6
mp-769962,0.6328,Li4TiFe3O8
mp-18840,0.9004,BaMnO3
mp-735567,2.5663,VAs2H4O9
mp-18936,2.3225,NdFe3(BO3)4
mp-782634,1.3117,VFe5(PO4)6
mp-997599,1.2602,Na8Ta7VO24
mp-559447,2.7817,Gd3Se4O12F
mp-19362,2.5929,KFe(MoO4)2
mp-29745,0.4796,Na2Mn2Se3
mp-29721,3.8841,B3H5
mp-776648,3.1211,Li2Fe3F8
mp-555852,1.9094,Rb2Ag2GeS4
mp-12984,0.828,TbCuSe2
mp-985570,5.599,SiO2
mp-28557,1.1256,Ag2PdCl4
mp-568611,1.0053,KCuPSe3