id,formation_energy_per_atom,pretty_formula
mp-2150,-1.190275675,BaTe2
mp-627557,-0.590559865,CdI2
mp-6633,-0.621031479,NaCSN
mp-7012,-3.597640147,KRb2YF6
mp-979963,0.391097386,Yb3Ti
mp-13947,-3.765497483,Rb2HfF6
mp-764340,-2.610386807,Li2FeSiO4
mp-850900,-2.739923453,Li3V2(PO4)3
mp-559786,-1.643940972,NaAs4BrO6
mp-568887,-1.708309766,RbCrCl3
mp-555678,-3.128188658,Na4Ti5O12
mp-755309,-1.473305452,Li3NbS4
mp-36066,-1.498020268,PNO
mp-27205,-1.212665686,TlCl2
mp-1020032,-0.657053048,Li8N3O
mp-556468,-1.128953293,ZnS
mp-10373,-0.260686236,Cr3PdN
mp-672707,-0.157283667,SrZn13
mp-865357,-0.348190044,Zn3Pd
mp-568069,-0.125121964,Ti2Bi
mp-24589,-1.675922776,K2HBrO
mp-11562,-0.297751777,TbRh5
mp-694888,-2.507090024,Ba8Mn8O21
mp-28508,-1.330093732,Cd(HO)2
mp-31297,-0.908589017,ScInPt
mp-673128,-2.115155365,LiCuPO4
mp-24090,-1.526601232,BaH4(IO)2
mp-4266,-2.765274015,KAsF6
mp-756837,-3.579952077,Ca4Zr3TaO12
mp-15671,-0.204816947,Re3B
mp-979430,-0.307259265,YLuTl2
mp-510642,-1.955031555,CuNi2(PO4)2
mp-14969,-2.042336382,BaErCuS3
mp-705588,-1.678695279,Fe8O9
mp-11489,-0.309832507,Li3Pd
mp-560785,-1.850678781,K2Y4Sn2S11
mp-864654,-0.340345395,Zn2NiRh
mp-560818,-3.344924468,Sr5B3O9F
mp-981549,0.058035157,Y3Th
mp-545500,-2.509447143,BaSbClO2
mp-707983,-1.964548595,Ca2MgB2H16(CO9)2
mp-744184,-2.542836786,TbFeGe2O7
mp-5456,-2.453347333,Sr2CuO3
mp-5331,-3.133403305,AlPO4
mp-669370,-0.418514853,Ta5AuS
mp-14650,-1.685537583,Nd10Se19
mp-5827,-3.51274084,CaTiO3
mp-21400,-0.599165986,Ga3Pt2
mp-1766,-2.257586612,TmS
mp-866521,-1.620543444,Ca2SnS4
mp-21203,-0.741612465,TbCoSi
mp-977550,-0.483547599,ZrScOs2
mp-1049,-1.085908306,SrAs
mp-558263,-0.737136953,YH24C9N6(ClO)3
mp-1949,-0.272476706,TiMn2
mp-557720,-4.301964955,CeF3
mp-559636,-2.832147836,KB3O5
mp-8189,-2.125320716,LiReO3
mp-7935,-0.54595458,USbTe
mp-16488,-0.326159074,Al9Co2
mp-20222,-2.998430088,Sr2NbInO6
mp-20991,-2.126296439,BaPbO3
mp-567377,-0.243285262,Ba(AlSi)2
mp-5046,-2.43647733,BeSO4
mp-778703,-2.98213727,Li4Mn3F10
mp-772189,-1.454719845,Bi3Ir3O11
mp-18259,-3.042164125,Ho2Cu(B2O5)2
mp-756050,-2.524469182,TaCuO3
mp-677490,-2.746549025,Li4Nd3SbTeO12
mp-776330,-1.80279053,Li4Cu2C4SO16
mp-16445,-1.497704583,CsSm2CuSe4
mp-557856,-2.041799852,BCl(OF2)2
mp-28512,-1.397514322,Ba(ClO3)2
mp-754203,-3.920984889,SmErO3
mp-780772,-3.303717488,Ta2O5
mp-753316,-2.232154218,Li2AgF5
mp-6188,-0.567270963,LuNiBC
mp-1067,-0.17956151,LiAl
mp-574040,-1.197322471,K2SnBr6
mp-33658,-2.322465003,Nb2Tl2O7
mp-697792,-2.376411393,LiMn2(PO4)3
mp-19468,-2.894083448,YCo(BO2)5
mp-676653,-4.110917206,Lu4Hf3O12
mp-3751,-3.301091761,AlTlF4
mp-7447,-0.7833557,Rb2Se3
mp-510412,-0.553836916,Si3Ru4
mp-1551,-0.291359403,Te2Ir
mp-975652,-1.273779452,PrTe2
mp-2008,-0.267756103,FeAs2
mp-554766,-1.820050575,AgP(XeF5)2
mp-1273,-0.211886146,CsGe
mp-13688,-0.1607825,Ge2Mo
mp-22258,-0.705422865,HfSiMo
mp-3545,-0.52580511,CeMgSi2
mp-973149,-0.056089712,Mn3Al
mp-706979,-0.870872546,PH6N3O
mp-540547,-0.082261164,Sm2Co7
mp-974000,-0.090717873,Lu2Fe17C3
mp-1727,-0.365792128,SrSi2
mp-864753,-0.26210249,LiYb2Ga
mp-758192,-2.143839212,LiCuPO4
mp-3978,-3.46308924,SrSiO3
mp-3513,-0.547253233,Dy2Al3Si2
mp-976339,-0.242357148,LiTm2In
mp-759915,-2.543635258,Li2BiP3O10
mp-567406,-0.295988788,SmZn5
mp-763905,-1.791665691,Co6O5F7
mp-762249,-1.960695457,V(CO3)2
mp-24196,-1.539223413,Tl2CuH12(SO7)2
mp-557304,-3.243445616,Sr2SiCl2O3
mp-542417,-1.848431158,Cs2MgH12(SO7)2
mp-755226,-3.506737876,La2Tb2O7
mp-777685,-2.73630345,Ti3Fe2Cu(PO4)6
mp-560051,-1.174150366,RbSiBiS4
mp-571264,-0.765253107,Ca5Au4
mp-625856,-1.389384263,TeHO3
mp-755336,-2.925706745,NdIO
mp-561561,-2.661987851,Cs2KRhF6
mp-23828,-0.872659144,Sr7(H6Br)2
mp-770550,-2.369984556,Li2AlCoO4
mp-561379,-1.530163134,GaRe(Cl3O)2
mp-23237,-2.797788432,BiF3
mp-759602,-1.973495153,Sb4O5F2
mp-1451,-0.288273467,NbNi3
mp-27236,-2.281227435,Sb2I2F11
mp-996971,-0.878807192,CuPdO2
mp-13918,-0.49411406,Sr(GeAu)2
mp-645687,-1.149594594,CsTi(PS4)2
mp-743810,-1.598574149,CsVZn(PO3)6
mp-762116,-1.939361732,LiCu4(PO4)3
mp-867827,-0.672028394,DyCdAu2
mp-685995,-2.895044049,Ta6Pb4O19
mp-20050,-0.052345821,InP3
mp-12777,-0.16460983,AlCu3
mp-12602,-0.295070127,PrZn5
mp-768114,-3.239583971,Li6Ti9O20
mp-776200,-2.82801002,GdAsO4
mp-557844,-3.028666655,KMg4(PO4)3
mp-703476,-1.33300695,P2H16N4O7
mp-5652,-3.687162937,Y2Si2O7
mp-27688,-0.760245921,K2TeI6
mp-4019,-3.576954508,CaTiO3
mp-862698,-0.558513915,Ac2SiAu
mp-545369,-0.738605871,CuBiTeO
mp-20495,-2.069248856,Na2CO3
mp-7343,-0.705839646,Y3Pt
mp-28522,-0.95548606,Gd2CBr
mp-19386,-3.037903105,Sr3V2O8
mp-675410,-2.141512968,Ba2U2O3
mp-768153,-2.223228273,Li2AsPCO7
mp-973890,-0.582905171,HoHfRu2
mp-865569,-0.688922366,Ti2MnIr
mp-752484,-3.076950685,YbB4O7
mp-773007,-1.639292731,LiCu5(PO4)2
mp-4473,-0.882871069,Ba(CuSe)2
mp-475,0.004811881,SnP
mp-4527,-2.156909431,Li8SnO6
mp-978560,-0.212344365,SmZnAg2
mp-23906,-1.41304036,LiH6NO6
mp-568172,-0.896215243,Ca3N2
mp-10172,0.02580999,Na
mp-18968,-2.629431619,Li2FeSiO4
mp-552191,-2.84579272,Ba2TbBiO6
mp-34735,-1.923159766,Ho2CdS4
mp-17908,-2.193830969,Ba2TiS4
mp-639662,-2.33047202,CrF5
mp-3526,-0.999531266,ErInPt
mp-640389,-1.328842689,Cs2Th(PS3)3
mp-972184,-0.954285823,VPtO3
mp-581449,-1.079359481,Re(TeCl6)2
mp-7832,-0.36795025,BW
mp-29177,-2.928012121,BaTe2F10
mp-183,-0.115158087,CeCd
mp-698366,-0.998110569,ZnH10C4(N2O3)2
mp-558460,-0.980732589,NaAg(NO2)2
mp-758475,-1.551798093,Li4(CuO2)3
mp-683941,-0.69412997,Nb14S5
mp-17738,-1.932047294,Sr2Cu(SeO3)3
mp-14488,-2.604705457,Li3In2(PO4)3
mp-867613,-3.353392782,LiTi4O8
mp-569136,-0.22427898,K3Cu11Te16
mp-1018675,-2.109948799,DyS2
mp-2361,-0.292416322,Hf5Al3
mp-11283,-0.255300447,ZrBe5
mp-762347,-0.594964949,Sn2N2O
mp-570158,-2.054213987,KRb3CdCl6
mp-1018157,-0.664437176,CrN
mp-763268,-2.353308843,MnOF
mp-777420,-2.146345675,Fe2Ni3Sb(PO4)6
mp-532267,-1.52304434,Sr8Ga16S31
mp-2861,-0.444139808,CaTl
mp-1265,-3.068645689,MgO
mp-865855,-0.551857482,Ac2SiPd
mp-10932,-3.36578491,ErSF
mp-770741,-2.448949369,Mg3(AsO4)2
mp-18808,-3.12762854,LuMnO3
mp-763190,-2.615702903,Li2VO2F
mp-977446,-0.502004381,NdVGe3
mp-27779,-1.282600451,Hg(Mo3Cl7)2
mp-28845,-1.735971131,OsO3F2
mp-843,-0.02325165,Th2Fe17
mp-705675,-2.175434852,Sr3Mn4O12
mp-427,-0.205400636,FeAs
mp-636946,-0.091865118,Fe6Ge5
mp-7928,-1.201508149,K2PtS2
mp-1005986,-0.119622991,Zr9CoMo4
mp-32755,-1.610967084,La2Te3
mp-763192,-3.049614533,V2OF5
mp-23279,-0.289888036,KBi2
mp-779347,-3.140173312,V4OF11
mp-27710,-0.306513783,CrB4
mp-20036,-2.441926882,Gd3S4
mp-973965,0.019608083,Nd3Ag
mp-989618,-3.072229016,Cs2RbGaF6
mp-776870,-2.439197787,Li2V3SnO8
mp-1018147,-0.718478053,EuPd
mp-779987,-2.549215998,Fe3OF5
mp-676799,-0.030989493,Ag8GeTe6
mp-18582,-3.211419897,Rb2Ti(Si2O5)3
mp-11677,-0.836277597,Sr3(SiAs2)2
mp-774482,-3.042945706,KLiTi2(PO5)2
mp-568808,-1.791708606,Tb3Se4
mp-769637,-3.104450114,Li5Ti6FeO16
mp-979425,-0.337759972,YHoAg2
mp-1632,-0.565199566,NdB4
mp-3826,-0.908144094,Ce(SiPd)2
mp-861901,-0.200439357,LiGaCu2
mp-561448,-2.189006087,Na4Ce(As2O7)2
mp-977402,-0.180229771,NpInRh2
mp-1018029,-0.12506279,CuPd
mp-769210,-2.49968401,Tb2Pb2O7
mp-2275,-3.709820904,UF6
mp-780512,-2.468582053,Li2Mn3(BO3)3
mp-772663,-1.716284555,MnH4(SO5)2
mp-768765,-2.263127752,Li2Bi2B2O7
mp-2672,-1.298894263,K2O2
mp-562501,-2.494142094,SiP3RuO11
mp-35015,-0.694157743,NaBiSe2
mp-5132,-3.50667684,YPO4
mp-697657,-2.609429305,CaP4(HO6)2
mp-10914,-1.10575121,K3Cu5O4
mp-540093,-2.133136797,CoPO4
mp-24227,-0.916532658,H8Pt(NCl3)2
mp-21531,-0.455379354,U2Mn3Si5
mp-30993,-3.058701345,LaIO
mp-11918,-1.262660649,Ca(BeN)2
mp-10428,-0.127013583,Cu8SiSe6
mp-553963,-2.364622523,YbSeO3F
mp-849537,-2.461280859,V6O11
mp-972869,-0.90995793,Sc2GaPt
mp-10133,-0.520681158,Sc3BPb
mp-1552,-0.102936235,Mo2C
mp-7999,-3.684642298,Y2Si2O7
mp-23672,-1.562354227,PH6NO4
mp-758770,-3.323123164,Li2Mg3Ti6O16
mp-978273,-0.049741286,Mg3Cd
mp-977556,-0.255794439,MgScCd2
mp-13401,-0.4519297,Yb(CuGe)2
mp-850255,-1.964186281,LiFeP3H8O13
mp-571281,-0.196930646,Ge3N4
mp-30467,-0.132388414,Bi4Rh
mp-29379,-0.789008051,K3BiTe3
mp-850341,-2.322627141,Fe4O3F5
mp-771241,-2.971208136,Ta3AgO8
mp-31212,-3.395021729,K2MgF4
mp-971859,0.62839813,Zn3B
mp-30298,-1.909753028,KAsO2
mp-541709,-0.917844487,Nb3Tl2Br9
mp-769262,-1.989617281,K5YO4
mp-567690,-0.119651301,TbMg4Cu
mp-2751,-0.443427389,YbSn3
mp-764319,-1.870879144,Li4Cr2Ni3Sb3O16
mp-27252,-0.611623953,TlCdI3
mp-998227,-2.968100495,KHfO3
mp-4854,-0.719171559,NdScGe
mp-530748,-3.365726748,MgAl2O4
mp-669914,-0.073103239,PrTlPd
mp-867242,-0.516966914,Sc2ZnGa
mp-26532,-2.068221181,Cu2P3O10
mp-559795,-1.445700006,Rb7NaZn2O6
mp-284,-0.60197245,AlCo
mp-672225,-0.161540992,BaZn13
mp-541950,-0.995194487,GaN5O14
mp-760476,-3.57206036,LiU3O8
mp-1698,-0.678739915,SrSn
mp-571323,-1.239847456,La12C6I17
mp-695780,-2.670612018,Li2MnP2O7
mp-776732,-2.796634455,Li2Fe3F8
mp-680093,-0.590449358,CdI2
mp-27383,-2.716857446,Nb3CuO8
mp-675779,-1.213448191,Li2Mo3S4
mp-567831,-0.339956917,YbGa2Ge3
mp-3999,-1.032963224,Y(SiPt)2
mp-976406,-0.598160607,MgMnPt2
mp-15613,-0.815200581,Cu(RhS2)2
mp-683910,-0.516628674,Ag7P3S11
mp-771963,-2.821453182,Ba2LaCl7
mp-765617,-1.578701518,Li4Fe2Cu3Te3O16
mp-765277,-2.414961613,LiSnPO4
mp-20724,-0.058297847,Mg2Pb
mp-779307,-2.432714725,Li3Fe(BO3)2
mp-517,-0.478114431,TaSi2
mp-23180,0.054051399,In5Bi3
mp-559043,-1.688964532,KLaGeS4
mp-567929,-0.448702692,Al13Os4
mp-9615,-1.760919749,LiTiS2
mp-7381,-0.077385362,TbMg3
mp-9559,-3.018132787,Nd3IrO7
mp-774344,-2.446104226,Mn5Sn(PO4)6
mp-866027,-0.526740728,YbRh2Pb
mp-8612,-0.223536607,Sb2TeSe2
mp-6941,-2.387094472,Y2Si3N4O3
mp-613612,-0.224618219,Yb(Fe2Ge)2
mp-10135,-0.660903083,YbBPd3
mp-15011,-1.1032609,NaBS2
mp-1540,-0.322877378,HoTl
mp-560986,-1.454297123,AsSe2S(NF3)2
mp-769510,-2.466450549,Li5Ti4Co3O16
mp-977545,-0.262082138,ZrTc2W
mp-3939,-0.835458219,Sm(SiNi)2
mp-568100,-0.850938557,ReNCl4
mp-3808,-3.083060311,K2UO4
mp-865327,-0.307584651,TmHg3
mp-9692,-0.869631792,K2GeSe3
mp-2985,-0.483496158,HoB2Ru3
mp-707226,-0.996996281,H8Se2N2O5
mp-258,0.046942728,ZrV2
mp-850913,-2.964085332,LiVOF3
mp-554591,-2.493639904,K2Ca2(CO3)3
mp-561062,-2.315685032,NaSb3(PO5)2
mp-504536,-0.533401644,Cu4SnS4
mp-23705,-0.257051027,Na3AlH6
mp-23894,-1.773583357,LiAs(HO2)2
mp-680944,-3.057920298,Nb2O5
mp-5948,-0.577197564,Th(CuSi)2
mp-542154,-0.269327766,Mo3Pd2N
mp-974065,-0.930157739,LuScPd2
mp-556892,-1.808795086,InBiO3
mp-21280,-2.102807449,BaPbO3
mp-744930,-1.559336651,FeH6SO6
mp-540270,-2.446915229,MoP2O7
mp-21035,-0.679632945,Sc3PbC
mp-18347,-0.794184867,KAlTe2
mp-638,-0.202565804,SrZn5
mp-558383,-2.918586396,Na2CrF4
mp-8058,-2.851318384,YAsO4
mp-5706,-0.241992825,SnPSe3
mp-437,-0.60379103,MgAu
mp-9435,-1.064887522,La3ZrSb5
mp-28517,-0.598463349,Tl6SeI4
mp-755015,-3.031690061,NaLaO2
mp-16503,-0.644014646,HoAl2Ni
mp-774433,-2.354869871,LiMnPO5
mp-556905,-3.11386071,GdMg(BO2)5
mp-631520,1.100255048,TlBTe2
mp-23026,-1.328277359,CsAuCl3
mp-20415,-0.682632213,GdPbAu
mp-23159,-0.437349606,SrBi3
mp-3442,-3.558538277,CaTiO3
mp-11227,-0.074641423,Al12W
mp-998928,-0.573569286,TlCdS2
mp-15722,-0.388994641,Fe2B4Mo
mp-775761,-0.550734648,AgClO3
mp-754541,-2.780133387,TmTlO2
mp-763211,-2.577053174,V3O5F
mp-734875,-1.595577634,H2Pb4C(Cl3O2)2
mp-3834,-3.658776783,BaZrO3
mp-8760,-0.867775589,Dy5P12Ru19
mp-27752,-1.227455674,Na6Ge2S7
mp-704669,-2.45382651,BaYb2(MoO4)4
mp-12266,-3.049690834,CaCuF4
mp-10712,-0.506390071,ScRh3C
mp-18049,-2.439822252,Ge5P6O25
mp-779365,-3.05349653,V2OF5
mp-631255,0.690955111,InSiIr
mp-27837,-2.522382471,NaHF2
mp-15793,-1.696651262,LiTbSe2
mp-566257,-2.102016794,Li4Mo3O8
mp-978910,-0.854209415,TbYRh2
mp-1008285,0.25459718,Cr3Fe
mp-771082,-2.160454397,Li4CrFe3O8
mp-32352,-2.36430597,LiNi(PO3)4
mp-776753,-2.320048154,Li4CrFe2Ni3(PO4)6
mp-22636,-0.429421369,TaNiGe
mp-3678,-0.918033814,Tb(SiRu)2
mp-560965,-1.065152959,K4Mn(AsS4)2
mp-649982,-0.75449013,Sb8(Pb3S7)3
mp-30754,-0.690845059,LaTlPd
mp-673117,-2.300215613,Sn2P3O10
mp-756090,-1.694937985,BaNa4O3
mp-767752,-2.459262904,Li3V5O10
mp-23560,-1.949107686,Ge3(BiO3)4
mp-1019735,-3.229404202,BaNaEu(SiO3)3
mp-15248,-2.891109161,K3Nb3(BO6)2
mp-557104,-3.006789762,LiAlB2O5
mp-1019895,-2.831865961,La3BN2O3
mp-558609,-3.457989019,Ce3Ta(ClO2)3
mp-675832,-1.342902979,SrCeN2
mp-16209,-1.477535958,K3La(PS4)2
mp-733858,-1.686534999,CaH4Se2O7
mp-626708,-1.302230221,Co(HO)2
mp-30670,-0.409821902,Th3Ga2
mp-769563,-2.234284351,Li4V3Cr3(TeO8)2
mp-772309,-1.781657917,Li3Ti(CuO2)4
mp-14862,-3.032680132,SrCu(Si2O5)2
mp-20418,-0.728181644,SiRh2
mp-770514,-2.027532156,Li5MnO4
mp-621994,-2.493857264,NdOsO4
mp-29128,-1.699172604,K2Te4O9
mp-24509,-0.915340704,CdH4(BrO4)2
mp-764991,-2.539551869,Li3V3P8O29
mp-11361,-0.174570645,MgCuSn
mp-18781,-1.665538824,CrCdO4
mp-676518,-0.156526729,In3SbTe2
mp-11691,-2.953428361,Nd2HgO4
mp-695891,-0.635011903,CdH6C(BrN)3
mp-767610,-2.043264717,Mn2O3F
mp-1013546,-0.598983705,Ca3Sb2
mp-27914,-1.725825101,Na3BiO3
mp-973261,-2.66129464,Mg2SnO4
mp-504207,-2.526825471,LiSb(PO3)4
mp-863744,-0.743774152,Ca2PdAu
mp-19380,-1.325214259,CrHgO4
mp-643248,-2.016483332,Na2AlH4ClO4
mp-740707,-0.48721798,H8AuC2S2BrN4
mp-10194,-1.209146653,LuSbPt
mp-759651,-1.02872747,ScH6Br3N2
mp-865169,-0.64498658,CaErRh2
mp-979013,-0.389283523,SmGe3
mp-733655,-1.904423274,KH3(SO4)2
mp-15254,-3.499554339,Li3AlF6
mp-761745,-1.32497137,SrCd2H16(Br3O4)2
mp-862754,-1.654017498,PrBS3
mp-557125,-2.682865973,K3ReClF6
mp-568644,-1.051895007,K9InSe7
mp-776456,-3.252694897,Ti2O3
mp-19754,-0.34996644,TmCoC
mp-554837,-2.20072888,Ba3LiIr2O9
mp-29286,-2.519975813,TlSbF4
mp-986,-0.177851217,CeZn
mp-33738,-1.012060789,TiNiO6
mp-555903,-1.321272877,Al(IO3)3
mp-4495,-1.076447698,KLiTe
mp-1665,0.090048202,YbFe2
mp-779515,-1.972331016,Na4Bi2C4SO16
mp-11740,-1.414753039,KNdTe2
mp-4325,-2.49779904,Zr(SO4)2
mp-755060,-1.12869376,Cs2O
mp-767435,-2.517002961,P3(WO6)2
mp-23047,-0.405399602,Ho6MnBi2
mp-28296,-0.902844397,Ba3GaSb3
mp-752701,-2.33954409,LiCuF3
mp-974846,1.435792336,Rb3Os
mp-975299,-1.264735016,RbInO3
mp-695048,-3.195887219,GdTi2CdO6F
mp-2509,-0.73351499,ThRh3
mp-11733,-1.091375459,Lu3InN
mp-974307,-1.978476343,NdCuTeO
mp-768865,-3.421648125,Lu2GeO5
mp-777694,-2.82704173,Li4Ti3V5O16
mp-36765,-2.280346569,Ti(CoO2)2
mp-675406,-2.489469759,Yb(HoS2)2
mp-771698,-3.687118257,LaAlO3
mp-769396,-3.050733546,Y2Ge2O7
mp-865532,-2.248825226,BaMgTe2O7
mp-505484,-1.061511407,PrGePt
mp-758251,-2.638946793,Li5AgF8
mp-999188,-0.127156943,NbNi3
mp-1019726,-1.149566238,EuMg3SiN4
mp-996975,-0.739586354,CuAgO2
mp-706585,-2.299453053,CaP2(HO2)4
mp-865917,-0.213410169,Lu2ZnTc
mp-766308,-1.625714946,BaCaI4
mp-1291,-0.362700084,ErIn3
mp-851120,-3.120460067,KNa2Li3Zr2(Si2O5)6
mp-570255,-0.442581273,Pr(AlGa)2
mp-721075,-1.789582827,Ga2P3H11O13
mp-11023,-2.578154488,ScAuO2
mp-23576,-2.608076935,CsSbClF3
mp-7781,-2.135045858,CaZrS3
mp-758571,-3.32736973,Al11TlO17
mp-998194,-1.161196651,RbInBr3
mp-647343,-0.256383728,PBr7
mp-4421,-3.739196334,LaTaO4
mp-30438,-0.232851689,Be2Cr
mp-768992,-1.92374969,Li6Bi2O7
mp-861915,-0.573288823,LiDy2Ir
mp-2303,-0.338139538,DyZn
mp-9042,-0.595908892,Np(SiPd)2
mp-30077,-0.412931338,K2GaSb2
mp-530165,-3.257576778,Li13Ti22O48
mp-30834,-0.573178733,SrSn3Pd
mp-696512,-1.345921366,NaH4IO2
mp-5671,-0.833507945,Sr(CoP)2
mp-557517,-1.833075404,Tb3CuGeS7
mp-558056,-3.131947014,AlPO4
mp-7324,-2.912719159,KBePO4
mp-862895,-0.400681134,Er2ZnRu
mp-772999,-2.290710102,Na2SiBiBO7
mp-865048,-0.691562203,TiZnIr2
mp-780870,-1.635088468,Fe4O7F
mp-1014168,-1.314908658,CsPbBr3
mp-774726,-0.683124772,Cu2H26C6S7N12O5
mp-650015,-0.88242951,P6N7Cl9
mp-766084,-2.732156509,Li7Nb12O24
mp-697264,-1.40246457,CdH2SeO4
mp-2103,-0.01550653,CuAu3
mp-20440,-0.172053751,MnNi2Sn
mp-8098,-2.150317361,InGaO3
mp-552729,-1.383147635,KIO3
mp-774479,-3.335075808,LiCa2Ta3O10
mp-560790,-2.948804795,Cs2NaBiF6
mp-984635,-0.633540112,LiErSn
mp-28812,-0.676766775,Ag5BiO4
mp-1019514,-3.059237723,AlPO4
mp-1018131,-0.344341521,LuAg2
mp-1020,-0.61360627,TaRh3
mp-7405,-3.718362648,SmAlO3
mp-775849,-2.25861799,Zr2N2O
mp-30971,-0.415400916,CuTe2Cl
mp-568195,0.031125849,U6Mn
mp-569726,-0.163113848,HoAlB14
mp-867502,-0.838757675,Eu2PtAu
mp-567458,-1.03848355,Ho(PRu)2
mp-36395,-2.043940693,La2CdS4
mp-568928,-0.910099267,Rb2FeI4
mp-705358,-2.402983286,Mo2P3O13
mp-28712,-1.596512733,Si2Hg6O7
mp-29591,-1.722515142,Sb3ClO4
mp-738657,-1.877747159,K3GdH6(C2O5)3
mp-770417,-2.385830407,Li4Mn2VNi3(PO4)6
mp-8537,-2.133518971,S(OF)2
mp-754212,-1.728488069,BaSr2I6
mp-18687,-3.377443622,NbF5
mp-571479,-0.624341376,BaYbSn3
mp-779078,-1.47364935,Na2CoO3
mp-567278,-1.315965834,Sr(Si3N4)2
mp-21609,-0.563464972,SrCuN
mp-12912,-2.755733708,Ba2PrRuO6
mp-4709,-3.521097919,PrNbO4
mp-22234,-1.911677792,Eu2C(NO)2
mp-774310,-1.960031823,Li10Cr2Fe3Co3O16
mp-31027,-0.722777203,Sc3(ReSi2)2
mp-862492,-0.302978829,LiErTl2
mp-653120,-0.251468949,Mn(GaTe2)2
mp-28797,-1.487655109,YHSe
mp-569299,-0.098188718,Be(BC)2
mp-974416,0.126888067,Re3W
mp-1510,0.036512198,Nd2Fe17
mp-850395,-2.408063821,LiMn3(BO3)3
mp-675821,-3.739976121,Y3TaO7
mp-30419,-0.151851068,USnAu2
mp-754637,-2.233640393,NaCuP2O7
mp-3392,-0.321181535,Ba(TlHg)2
mp-31430,-0.091836578,Na2In
mp-685810,-1.630957832,AsN2F7
mp-20834,-0.986551535,CeSnPt
mp-974738,0.102949291,KSr3
mp-985584,-1.199007526,Na3PS4
mp-768207,-2.257634089,Li2SbPCO7
mp-677597,-1.389956196,Ta4AgS8
mp-774155,-1.971997913,Li2FeO3
mp-778032,-2.802148891,LiV2(SiO4)2
mp-32594,-1.877399383,Sm2Se3
mp-568191,-1.533288449,SrLuCuSe3
mp-978953,-0.386052542,SrAcTl2
mp-867673,-1.045756322,Na3(Pt3O4)4
mp-26762,-2.44515696,Sn(PO3)3
mp-559695,-2.92666984,Cs2RbBiF6
mp-980659,-1.379970264,Tl3BiCl6
mp-984082,-2.288336158,CsGdO3
mp-631526,1.408990109,SiBPb
mp-780868,-1.640540593,Fe4O7F
mp-21706,-2.999444778,GdAl3(PbO4)2
mp-17371,-3.798859684,K2ErF5
mp-766979,-2.205708043,Sn4P2O9
mp-23162,-2.040264139,ZrCl2
mp-31330,-0.703617004,NdInRh
mp-567824,-0.281600879,K2NaCo(CN)6
mp-1018096,-1.91782959,Ba2NF
mp-7017,-0.893762882,NaNbN2
mp-15953,-0.648220045,P2Rh
mp-19443,-2.188862307,WO3
mp-762643,-2.592095645,LiFeSiO4
mp-608031,-2.644242051,NaNpCO5
mp-1018676,-0.721233492,CeSbAu
mp-975056,0.382927105,Rb3Al
mp-9619,-0.658192802,Th(FeP3)4
mp-755225,-2.476958247,Li8ZrO6
mp-775333,-2.224225024,CrNi(PO4)2
mp-607111,-0.698226081,AlPt3
mp-766250,-1.963814919,Er2H16S3O20
mp-348,-0.953419685,TmPd
mp-2612,-0.074955587,GeTe
mp-542121,-3.112174355,Rb4Nb2Si8O23
mp-561877,-4.487804393,HoF3
mp-569059,-0.916851353,HfI4
mp-3159,-0.81421859,Al2CdSe4
mp-696457,-2.346332302,ScP3(HO2)6
mp-18771,-2.621920469,Sr2CoWO6
mp-557126,-3.301587517,NaPr(Si3O7)2
mp-4515,-0.420987347,Ag3SbS3
mp-558418,-2.550251665,NaCrF6
mp-972,-0.344882359,MnSe
mp-18568,-1.045656753,Na2Ge2S5
mp-16497,-0.410888446,ScAlCu2
mp-14249,-1.297345773,Th(PS3)2
mp-29215,-1.949986368,Te4P2O13
mp-18956,-2.774956227,SmCrO4
mp-18934,-2.386946636,LiV2O5
mp-556531,-3.08105596,LiSi2BO6
mp-757546,-3.247484458,K3Ta8O21
mp-13929,-3.00538361,Ba2SmReO6
mp-754514,8.88E-16,N2
mp-13514,-3.486121627,NdBO3
mp-27880,-1.658395953,Nb3Cl7
mp-757115,-1.912657155,KSb5O13
mp-5965,-2.99021663,Tb3Ga5O12
mp-974769,-0.522286477,EuNiGe3
mp-27477,-2.338735503,TcOF4
mp-6520,-2.448960225,Ba3MgRu2O9
mp-865526,-2.345504162,TmSb(PbO3)2
mp-972103,0.469033962,U3C
mp-696804,-1.027994848,RbHS
mp-12725,-2.165344412,NbAgO3
mp-980948,-0.434719683,SrCaIn2
mp-557481,-2.663576055,Sr4RhO6
mp-540993,-1.397083292,NaMo6Cl13
mp-567768,-0.544457137,YbCuGe
mp-675120,-0.072097532,Cu2SiTe3
mp-557650,-1.901104458,Sr3P6(N4O3)2
mp-976955,-2.612142642,Li2RuF6
mp-559270,-1.370053496,RbBa4Sb3O
mp-975599,0.034052955,Pr3Er
mp-1009222,-0.0545834,MnTe
mp-4952,-0.319297327,La2MgNi2
mp-558553,-3.49021413,Sr4Ti5(Si2O11)2
mp-764760,-2.974587753,LiVOF3
mp-780239,-2.458006539,Na6Sn2B4SO16
mp-17377,-2.837677203,KNb(PO4)2
mp-560021,-1.791619919,AuS3(O3F)3
mp-865696,-0.849559094,HoGaRh2
mp-30490,-0.07010787,Mg3Cd
mp-29779,-0.816815914,Lu3Ni2Ge3
mp-27141,-1.862860237,P2H8O9
mp-31103,-0.173791046,Ni3Te2
mp-8615,-2.970336433,NbBO4
mp-758835,-1.015999061,Na(Cu3O4)2
mp-759750,-2.15014488,BiOF
mp-572726,-1.10001541,SbSeCl7O
mp-684053,-2.334168527,Sn6P7O24
mp-7089,-0.586030401,KMgSb