id,band_gap,pretty_formula
mp-754991,1.4854,Ga3NO3
mp-756198,1.7888,Li14Mn2S9
mp-767722,1.2461,VFe(P2O7)2
mp-707981,3.3404,Y4H9NO13
mp-28781,5.7458,PrZr3F15
mp-556639,3.441,DyNbO4
mp-28025,3.5107,Sn2SO5
mp-23376,2.1709,GaSeBr7
mp-573751,3.2818,AlTeCl7
mp-510549,4.7871,K3B12H12Br
mp-715333,1.0723,Fe7O8
mp-706664,3.409,B10H13
mp-585265,1.3702,LiMo2(PO4)3
mp-554144,2.8281,K3Mn2F7
mp-778450,4.2257,LaSmO3
mp-697664,2.0429,LiCr4(PO4)3
mp-28103,0.5641,USCl9
mp-762258,1.4845,Na2Sn4O9
mp-3664,1.6725,NdTlS2
mp-30003,1.6517,AuSO4
mp-605694,5.1191,NdH12S2NO12
mp-694999,2.1556,Na3V2P2O10F
mp-557955,3.5451,Ca3Al4ZnO10
mp-778224,0.9339,La4CoO8
mp-768223,2.227,Cs2CeO3
mp-3828,3.9423,BaAl2O4
mp-1006058,2.0871,UCd2O5
mp-760637,3.7249,LiBiP2O7
mp-1875,4.3688,TeF6
mp-15335,0.284,Lu2Cu2O5
mp-6753,4.7909,Ca5Si2C2O13
mp-6560,3.9829,KSO2F
mp-2826,2.5673,Lu2S3
mp-554801,2.9914,Ca3Nb4(O6F)2
mp-759868,2.5044,Li3Sb2(PO4)3
mp-764852,1.9467,V6O5F19
mp-1143,5.8537,Al2O3
mp-560600,0.5871,CsNiPdF5
mp-768146,5.0719,Na2AlPCO7
mp-5238,0.7043,GaCuS2
mp-625993,1.9738,Te(HO)6
mp-780326,0,Ni(IO3)2
mp-626973,4.5412,Ba(HO)2
mp-556521,0.8484,KNa7Pb2O7
mp-540258,1.9482,Ti(PO3)4
mp-6281,0.4322,NaCa3RuO6
mp-17945,1.8541,RbPSe6
mp-23004,5.1261,CsMgCl3
mp-6150,4.3216,Na4Zr2(SiO4)3
mp-23137,1.8151,Ba2YBiO6
mp-24423,3.8289,SrHBr
mp-28205,2.4308,Na3ReO5
mp-542974,2.4434,K3Nd(PS4)2
mp-8720,0.9609,Rb2MnTe2
mp-760678,0.8935,Sb2H4AuF16
mp-24204,3.5468,CaHI
mp-557855,3.9604,CaGaBO4
mp-554702,5.6395,NaZr2NiF11
mp-1008785,0.6101,RuO2
mp-9427,5.2811,NaYP2O7
mp-24505,5.011,MgAl2P2(HO)18
mp-541291,1.4075,Na3MoN3
mp-9812,3.5628,ZnCO3
mp-23420,1.0766,Ge19(PI)4
mp-642938,2.2292,RbCr4BiO14
mp-5767,5.887,DyPO4
mp-777674,3.6469,LiFeF4
mp-5403,3.8602,Rb2TiO3
mp-756276,1.796,CeHfO4
mp-27632,1.1426,K2TcCl6
mp-504908,1.0067,In2TeO6
mp-755619,2.7261,Sn2P2O7
mp-777668,0.2642,Li4Ti3Co3(SnO8)2
mp-17928,0.7855,Ba(ErTe2)2
mp-18291,0.376,BaSbTe3
mp-541347,1.7009,Er2Au5F21
mp-778949,1.1139,Li2CuPO4
mp-8398,7.0491,CsYbF3
mp-771658,4.834,Li2NiH12(SO7)2
mp-770682,3.0599,Li2Co(Si2O5)2
mp-30300,3.1413,Cs3As5O9
mp-557001,2.4269,RbSO4F
mp-9793,1.5235,Ba3BAsO3
mp-541742,1.0437,Cs3Mo2Cl9
mp-695511,2.5761,Na2CaTi2(GeO4)3
mp-773646,3.6991,InP2H9(NO4)2
mp-866306,1.6426,Ba(NdS2)2
mp-778261,1.1415,Li4TiMn3Cr2(PO4)6
mp-29711,0.6319,Tl2Te3
mp-15547,3.9818,Na2ZnGaF7
mp-773843,2.2961,LiTi2(PO4)3
mp-766938,2.5679,K3Li2Nb5O15
mp-1019520,1.5532,Ba3Ca2(SiN3)2
mp-29114,1.2409,Re3Te4Cl5
mp-606393,1.9617,NbBr3O
mp-622183,2.6003,Co2PClO4
mp-17273,0.7858,Ba(HoTe2)2
mp-753387,0.3171,Li2Cu3F8
mp-560631,0.5872,KUSi2O7
mp-27773,2.3715,H5IO6
mp-9783,3.9108,Ba3(AsO4)2
mp-770111,0.5492,PrBiO4
mp-570504,0.6693,Yb11InSb9
mp-6316,2.6296,Er4Si2S3O7
mp-3810,0.7078,Hg(AsO3)2
mp-10103,7.6906,LiYbAlF6
mp-754613,4.4942,K2ErPCO7
mp-31069,2.0702,P2Pb8O13
mp-753920,2.1166,Tm2SeO2
mp-556719,3.3727,K2Ti(SiO3)3
mp-706937,3.319,B9H11
mp-569843,1.5292,MnBr2
mp-10970,4.1036,LiErO2
mp-555990,2.8061,Er2SiSO4
mp-766204,4.6201,ZnPH5C2N4O3
mp-2833,0.5211,IrS2
mp-14052,3.668,Ca3In2(SiO4)3
mp-17914,2.5344,CaGa4O7
mp-13189,1.3513,SrLuCuS3
mp-14363,3.5526,Rb2LiAsO4
mp-777675,1.2234,Li3V5O12
mp-682592,0.3082,K2Ca2C2O3F2
mp-10783,1.9741,RbHoSe2
mp-16699,3.0808,Li6Gd(BO3)3
mp-779789,2.9,Li4Mn3Fe(BO3)4
mp-504894,5.0727,MgH12SeO9
mp-29755,4.7824,CaSi2O5
mp-554959,3.5187,K2Al2Sb2O7
mp-771388,1.4066,MnP2O7
mp-14304,1.9818,Lu2MgS4
mp-555117,2.6076,Cs2Bi4O7
mp-997026,0.8294,CuClO2
mp-14235,3.9542,SrGa2(SiO4)2
mp-560223,2.9779,K2Se(SO3)2
mp-8453,1.9876,RbNaO
mp-754472,2.5451,HoCuO2
mp-554245,2.8424,BaPb2IF5
mp-768176,3.5377,TmTaO4
mp-554822,2.9519,CsSb(PO4)2
mp-504554,3.0901,Ba5Ta4O15
mp-17446,2.4369,PrPtF7
mp-29722,0.8573,Ca11InSb9
mp-22574,1.3011,HgP14Pb
mp-542001,2.0978,CeF4
mp-559847,1.2618,Ag5P(S2Cl)2
mp-7770,0.2564,Sr(ZnAs)2
mp-769584,0.8661,NaMnPCO7
mp-23666,3.7943,AsH8CN3O4
mp-28870,0.9832,PRhO4
mp-23714,3.1308,SrH2
mp-6785,2.8102,K3UO2F5
mp-644226,3.1815,BaH2C2O5
mp-561118,2.0338,ZnS
mp-1683,0.4382,ZrSe3
mp-510519,2.0558,Rb2V3O8
mp-39025,1.6547,NbO2F
mp-556179,2.7393,Pr3Si2S8Cl
mp-6017,3.2621,Na3In(PO4)2
mp-572805,2.9267,Cs2I4O11
mp-3637,4.954,YOF
mp-754979,4.3752,Y3AlO6
mp-39033,1.7525,Sr(NdSe2)2
mp-27482,1.6476,Ag4P2S7
mp-3933,3.5372,Mg2PN3
mp-707209,2.8625,CsH24Rh(SO10)2
mp-759878,4.8656,RbMgH12(ClO2)3
mp-754043,4.1867,NaLuO2
mp-780125,1.2958,LiCr2P3O13
mp-558377,4.5775,B2H12C3(NO)6
mp-554061,0.6891,MnSbS2Br
mp-770892,1.9515,VPO5
mp-697242,4.9697,H5C2NO
mp-12015,0.2132,KAg2AsO4
mp-29693,2.9649,Rb2AgCl3
mp-753670,2.838,CaPbI4
mp-773144,0.7096,Mn3V2Cr3O16
mp-962058,1.9258,YSeCl
mp-8380,4.6245,K2Si4O9
mp-28375,0.7135,Ta2AgF12
mp-530316,2.5179,Dy2TiO5
mp-770843,1.2515,VCrO3
mp-777489,3.0799,LiFeF3
mp-676598,2.6023,TlPbCl3
mp-8930,0.8393,K2GeAs2
mp-14988,2.1096,K4SnO3
mp-570548,2.7093,NaPr4I7N2
mp-849441,2.3272,LiVP3HO10
mp-779989,3.3466,Gd2P4O13
mp-29488,1.4557,Na2ZnO2
mp-583034,0.4188,Ba2U2O7
mp-28044,4.917,TmCl3
mp-570646,0.7738,Nd4Te3N2
mp-28194,2.0644,BiClF8
mp-540703,2.0957,Cs2S
mp-571103,0.255,In5AgSe8
mp-679936,1.163,Er7C2I12N
mp-10918,1.5802,Rb2PdC2
mp-15789,1.9547,LiDyS2
mp-764448,1.6123,V2OF5
mp-715493,1.0063,V4O7
mp-779909,1.1463,V6O7F5
mp-770489,2.3776,Li6Cr3Fe(PO4)6
mp-753000,0.7239,NaSb3O8
mp-600023,5.488,SiO2
mp-27187,4.8968,Be2TlF5
mp-5126,3.8211,ZnSO4
mp-625465,3.8243,Tm(HO)3
mp-761602,0.5348,Li3Fe(CoO3)2
mp-23419,2.6435,Sb4Cl2O5
mp-756457,3.4478,ErNbO4
mp-27169,3.1472,KTa5O13
mp-776754,3.2092,Li2Fe3F8
mp-43188,3.8839,Na8BeAl4Si7(BrO12)2
mp-996987,0.5072,LiCuO2
mp-13516,5.6941,TmAl3(BO3)4
mp-744240,1.2637,CaFe2P3HO12
mp-14383,3.2292,KGePO5
mp-684470,4.0954,Li3Sn2P5O16
mp-776439,4.6321,SmTmO3
mp-696806,4.3425,BaH4(BrO)2
mp-28135,2.6481,NbXeF11
mp-720874,5.6995,PH5NO4
mp-10804,5.4772,NaYPO4F
mp-771579,1.7315,Li7W5O16
mp-2955,6.7529,NaMgF3
mp-715553,0.7775,VO2
mp-27577,0.7476,Cd2As3I
mp-11025,1.4656,ZnP2
mp-690515,1.0583,K2CoH2(SeO5)2
mp-769499,1.1604,LiLa8V8O32
mp-541899,2.9022,CsCdBr3
mp-38418,2.6327,Tm2Ti2O7
mp-22216,0.8349,In2S3
mp-762063,0.829,Na4Cu6O5
mp-505311,1.0065,Sr2CrCuSO3
mp-650816,1.0341,La5V3S6O7
mp-1019379,3.5966,AlB3N4
mp-777418,3.5946,Li2FeF4
mp-24303,5.4068,Mg3P4H48(NO15)2
mp-772255,1.8792,CuPO3
mp-19238,0.2307,Co(PtO2)3
mp-743511,2.2892,CaV2P2(H4O7)2
mp-754629,1.0829,WN2
mp-754824,2.5643,SrO
mp-667421,3.3955,SrTeO3
mp-675462,0.4815,Mo2RuSe4
mp-18924,0.3223,Sr3(FeO3)2
mp-753954,0.6331,CdCuH8(ClO)4
mp-31817,3.9523,Li2Fe(PO3)4
mp-27441,1.4342,Au2Se4O11
mp-625733,4.02,La(HO)3
mp-771762,3.1298,Ho3Sb5O12
mp-14377,3.899,KTaGeO5
mp-1019745,4.7468,K2Ca3Si3O10
mp-27374,1.2044,NaAsSe2
mp-27853,1.6995,Hg3(TeBr)2
mp-764764,0.625,Li7Mn5O12
mp-567714,2.6678,Rb2AgBr3
mp-625394,3.7165,La(HO)3
mp-779153,0.2214,Li3Mn2(CoO4)2
mp-4429,4.8375,CaSiO3
mp-778284,1.2409,Li4V3Co2Sn3O16
mp-754781,1.6875,Ga3NO3
mp-756098,3.6126,BaSrI4
mp-765608,0.5895,Na7Mn11O24
mp-752581,3.9466,Sr2HfO4
mp-1735,1.6149,BaC2
mp-8956,0.6114,Ho2S3
mp-707097,3.1404,NaGdRe4(H2O5)4
mp-620369,0.511,TaAg7S6
mp-15144,0.2507,ZnAg2GeO4
mp-772564,0.2788,NiH8(CO5)2
mp-758780,4.357,LiBiP2O7
mp-532604,1.2721,Na2Zr12B2I5Cl23
mp-556130,2.3438,GeXeF10
mp-752658,2.1838,Y2SeO2
mp-775755,1.0161,Li4Ti3Ni3(SbO8)2
mp-13960,4.4774,Sr3Er2(BO3)4
mp-5088,3.1174,NaGdO2
mp-16159,2.592,Pr4Si2S3O7
mp-40886,5.5306,ZnC2S2(OF)6
mp-559533,4.4484,NaLiCO3
mp-867656,3.6515,LiH2N3O
mp-16107,3.9206,Rb3P6N11
mp-695873,4.8258,ZnP3H12NO13
mp-757360,2.6896,HgTe(HO)7
mp-697840,1.7676,Ba3La7Ti3Cr7O30
mp-555608,4.711,Na3Sc2(PO4)3
mp-759198,1.868,Li2AgF3
mp-6112,0.6975,K6Na3GaSb4
mp-568779,1.4883,Tb3CuSiSe7
mp-532290,5.204,Zr3BiF15
mp-27575,2.8665,Te5(O2F11)2
mp-8405,0.2121,Li3LaSb2
mp-17056,4.1074,LiZnPO4
mp-558951,5.3642,K2B6H2O11
mp-571648,1.2152,Rb2MnCl6
mp-23060,0.6484,Cs2PtI6
mp-9250,2.309,RbLiSe
mp-760812,0.8739,Li3CuF6
mp-770755,1.0164,Li3CrO3
mp-1020026,6.0872,LiBeBO3
mp-783902,0.4843,Dy2V2O7
mp-20930,0.2393,InCuO2
mp-756811,2.1634,Li4TiS4
mp-315,4.4044,PbF2
mp-764672,1.4555,Li3Fe8(BO3)8
mp-29252,3.5509,Sn2ClF3
mp-28291,4.9602,Ge(SF6)2
mp-554376,2.7137,Y4TiSi2(O3F2)3
mp-1019793,4.484,K3La(PO4)2
mp-772919,5.6869,Tm4(B2O5)3
mp-556440,4.1816,CaZr4(PO4)6
mp-684944,0.4851,In2S3
mp-27402,0.7301,Na2CoCl4
mp-722906,0.6148,Na3CuB8H17O23
mp-767620,1.3801,LiVSiO4
mp-1019578,2.4567,Ca5(SiN3)2
mp-559426,3.4581,Pr2Zr2O7
mp-504427,1.9809,Ti3PbO7
mp-761098,1.0124,Li3Cu3(PO4)2
mp-27167,2.4397,Sn2IF3
mp-773137,0.8276,KCaBi
mp-552028,0.8252,Nd2Ti2S2O5
mp-31002,0.2571,Rb2Te5
mp-632296,6.7187,HF
mp-676275,4.1223,Nd2Pb5F16
mp-1017508,0.6791,LuTlTe2
mp-763212,1.0707,Li2VO2F
mp-16608,0.8553,Si3Os2
mp-754693,2.1029,Lu(BiO2)3
mp-11711,2.7361,Gd(BO2)3
mp-764525,1.3629,Li3Fe8(BO3)8
mp-6745,4.2717,LiGa(SiO3)2
mp-19441,3.3907,CaCr(Si2O5)2
mp-3374,1.9966,Nd4Au2O9
mp-703589,2.6389,K4Ti2H2O5F8
mp-24124,4.8667,NdH2ClO2
mp-5114,1.7161,K6HgS4
mp-643658,4.8639,Na3MgP2HO8
mp-504997,1.5643,NdCu(WO4)2
mp-767622,1.7415,Li2VOF3
mp-766139,0.3724,Li2V2F7
mp-768505,2.8847,LuGaO3
mp-24618,6.1343,AlH10N2OF5
mp-768273,2.3862,Gd3As5O12
mp-740752,4.0226,BaRe2(H2O3)4
mp-541083,3.4065,KPH5C2S2(NO)3
mp-972199,2.2144,CsTbS2
mp-558867,5.2091,H7ClO7
mp-6870,6.0552,KBe2BO3F2
mp-767707,2.1172,Li2Fe5Si5O16
mp-568848,3.8516,GaCl2
mp-556278,2.0126,Bi6As9Se4S10(O4F13)5
mp-558672,3.5102,Si3Bi2O9
mp-505747,1.0028,TlIn5S6
mp-677422,3.5109,Ca2Ga2Si(HO4)2
mp-558690,5.3994,ZnB4O7
mp-557289,2.7254,TiP2Cl8O3
mp-6319,6.6578,Na2MgAlF7
mp-560431,5.5583,KBe(PO3)3
mp-626194,4.8739,Sc(HO)3
mp-28920,0.5641,Tl5Se2Cl
mp-29200,2.5213,KNO2
mp-29637,2.3229,K4MnBr6
mp-3370,2.752,Y2Sn2O7
mp-4182,0.6317,CrAgS2
mp-11603,0.9191,KNd2CuS4
mp-752679,3.2602,CaGd2O4
mp-14526,3.6565,Na4Hf2(GeO4)3
mp-18876,1.7896,K3CrO8
mp-561083,4.2047,Na3Bi(PO4)2
mp-18741,2.9926,RbLiCrO4
mp-553930,2.7033,B2Pb6SO12
mp-3785,0.5765,TlGaTe2
mp-29883,4.2767,Rb3PbCl5
mp-779306,2.1904,Li3Fe(BO3)2
mp-755478,0.761,CdBiO3
mp-17031,5.298,KAlP2O7
mp-753195,2.0086,Li2WS4
mp-708993,4.5395,Na2PH15O11
mp-675372,2.2314,CaZr4O9
mp-684082,4.0041,LiSb(PO3)4
mp-21547,0.2847,Na3InSb2
mp-542819,4.7562,Cs3B12H12Br
mp-644129,4.0056,KNiPH2O5
mp-771967,3.4031,BaLaCl5
mp-772424,2.4307,RbLi2V2(BO3)3
mp-774326,0.6976,Ni3OF5
mp-626701,1.7221,Mn(HO)2
mp-14704,4.7399,Li6Y(BO3)3
mp-556741,6.5888,KNaThF6
mp-13986,2.495,Li2PtF6
mp-917,2.2972,CaC2
mp-21390,0.5091,La2InCuSe5
mp-28450,5.6067,Li4P2O7
mp-7050,0.2376,ZrTlCuSe3
mp-24614,6.6481,BeH8(NF2)2
mp-651358,4.9204,Ba2ErCl7
mp-23623,3.407,B5Pb2BrO9
mp-770155,1.2966,Li3V3(BO5)2
mp-707744,2.7828,K2TeH10(NO7)2
mp-558320,0.5497,K3U3Si2O13
mp-15515,6.981,BaNaAlF6
mp-19470,3.3558,Na4Ni7(PO4)6
mp-20337,2.7318,ZrPbO3
mp-571100,1.796,CsAgBr2
mp-643735,1.1436,H8Pd(NCl3)2
mp-766332,3.3113,BaCa2I6
mp-776758,2.9908,Li2Fe3F8
mp-553025,3.577,CaBiClO2
mp-752407,3.8174,Dy2Ge2O7
mp-28161,3.8178,Na3P6N11
mp-781050,1.2387,Li4CrSb(TeO6)2
mp-558298,2.9583,Zn3TeAs2Pb3O14
mp-655489,1.95,Pb4SeBr6
mp-556178,3.9365,BaAl2(GeO4)2
mp-763199,2.1029,LiMnF4
mp-769617,1.2759,Li2VCrO4
mp-531130,2.1278,TlBi25O39
mp-1700,3.3056,AlN
mp-720835,4.4617,Mg5H10(C2O9)2
mp-24007,3.311,Rb2HBrO
mp-772801,2.3294,LuBiO3
mp-770604,3.1875,Li2CoH8(CO5)2
mp-3312,1.142,Cs(SbSe2)2
mp-997082,1.0987,BiAuO2
mp-8586,4.546,InBF4
mp-849277,1.6396,Li2CuP3(HO5)2
mp-20489,0.7991,SrPbO3
mp-768357,2.5743,Ba2Ti11O24
mp-18429,2.4229,KAg(NO3)2
mp-27915,2.9175,K2BeO2
mp-698206,0.5103,Ba5Re3O16
mp-34140,1.5927,Zn(FeO2)2
mp-6270,1.8199,Ba2LiReO6
mp-756933,0.4601,TaTlO3
mp-29372,1.0868,Cs2GaSb2
mp-705340,2.0707,LiVP2O7
mp-11175,2.7289,LiZnPS4
mp-707536,3.5239,KHSeO4
mp-770700,2.8666,Li2Ti3O7
mp-3417,5.1925,Ca(BO2)2
mp-18652,2.1729,Sr3HoRhO6
mp-778385,3.2394,B3H3SeO9
mp-782009,2.9651,Ca9La5Br33
mp-776074,3.2663,CaGeO3
mp-8235,1.2096,K2SiP2
mp-542697,0.5315,Rb2RuO4
mp-997587,2.5345,La7ScAl8O24
mp-559733,2.8711,GdH7C2SO8
mp-557918,2.6828,KGaAs2O7
mp-23810,3.774,BaAsHO4
mp-28676,5.5878,S2O5F2
mp-23386,1.6167,Sn2SI2
mp-766625,0.6067,LiFe2(BO3)2
mp-686077,2.369,Er18Ti14O55
mp-19081,2.7361,MnMoO4
mp-558163,1.2799,Pb(SeO3)2
mp-766015,3.5238,SbOF
mp-559734,2.5357,UOF4
mp-642650,5.3098,LiP(HO)2
mp-1019898,4.6632,LaPO4
mp-16793,2.8506,Be3Cd4Si3SeO12
mp-6867,4.3468,KCaCO3F
mp-554948,4.2537,NaI(OF)2
mp-15951,8.3241,BeF2
mp-556422,2.8047,NbCl3O
mp-774456,3.9504,InH11S2O13
mp-763149,3.2957,LiMnF3
mp-675778,7.0405,NaY2F7
mp-755549,2.5519,Y2TeO6
mp-569282,0.9215,LiCa10MgSb9
mp-755047,1.7121,Ti3N2O3
mp-29370,1.8522,Na3BP2
mp-850410,0.6657,Li2Mn3(BO3)3
mp-15567,2.3033,Na3AuS2
mp-774929,0.474,Na5Bi2P(CO4)4
mp-21489,1.2028,Rb2PbO3
mp-675419,1.9663,LiPrS2
mp-561317,3.8843,Rb2NiF4
mp-4823,0.9249,Na2PdC2
mp-28734,1.0914,Zr6CoCl15
mp-972831,3.6464,SiGeN2O
mp-643930,0.35,Eu2H4Pd
mp-770280,4.1508,Li6Bi(BO3)3
mp-755373,3.4908,Lu2GeO5
mp-767392,2.1243,Li7Ti7Nb5O30
mp-625184,3.973,Sr(HO)2
mp-531358,1.8117,Sr17(Ta5S21)2
mp-19492,4.3259,LiMn(PO3)3
mp-867524,0.6647,KH4O4F
mp-554079,1.3504,FeS3N2Cl5
mp-646297,1.8286,Hg4Pb2N6O19
mp-756431,0.3048,Li2CuSnO4
mp-780396,3.711,SrCa2I6
mp-556036,0.5443,Ba3Al2Cu2F16
mp-555230,4.1384,Rb2YGa(SiO3)4
mp-27649,2.0539,BaU2O7
mp-643718,2.3189,BaMgH4
mp-8658,2.027,CsNaSe
mp-14659,1.6038,KAsSe2
mp-764234,1.0399,Li13Mn3Nb2O16
mp-28289,5.9678,SiH3F
mp-697317,2.5453,Rb2YTi(PO4)3
mp-757407,0.9458,Sr2Tl2O5
mp-9518,1.2366,NdZnPO
mp-554896,1.2425,SbXe2OF15
mp-649177,2.1627,ReTe5O6F25
mp-555394,4.0656,SiO2
mp-721727,3.8798,NaBH8O7
mp-554015,5.5176,CsK(ClO4)2
mp-8335,2.9865,Ba2ZrO4
mp-27829,2.6093,Rb2SeCl6
mp-769366,2.5901,Nd3SbO7
mp-706,1.7916,HgF
mp-540231,4.1959,Li2FeP2O7
mp-559356,1.5714,Tl3AsS3
mp-867336,0.3168,K2SrCdSb2
mp-778697,3.8372,LiMnF3
mp-24574,4.4543,NdH5(SeO4)2
mp-541832,1.9552,Ba2SnS4
mp-42190,3.9572,K2NaTiOF5
mp-36252,0.9502,Nd5CuSe8
mp-510036,0.7806,Fe2Cu(P2O7)2
mp-28931,0.7341,Ga2TeO6
mp-757470,5.0615,K2ZnP4(HO2)8
mp-754501,1.5254,Ca(CuO)2
mp-676881,4.1412,Ho4Zr3O12
mp-720222,3.7823,Na3CaAl3Si3SO16
mp-32633,0.5317,Dy6Se11
mp-779519,3.604,Ba4Hf3O10
mp-560170,3.3428,Nd5Te2Cl3O10
mp-6386,2.8534,K2ZnGeO4
mp-30957,5.4757,Pr(PO3)3
mp-3540,3.1255,Li2SnO3
mp-560339,4.8532,Ca2Zr(SiO3)4
mp-651961,0.9773,Nb4Te17I4
mp-510293,2.4614,Pb3SeO5
mp-1413,0.505,P2Ru
mp-759433,0.5473,Li3CuF5
mp-554736,5.4565,CaB2(H6O5)2
mp-755716,4.1943,HoHO2
mp-505166,1.4948,ErCu(WO4)2
mp-769074,2.5047,Na2LiTi3Al(PO4)6
mp-541582,1.1315,ReSe2
mp-735063,5.459,H7CSN3O4
mp-758225,2.3235,Bi10(Pb2O7)3
mp-29265,5.4318,Nd2(SO4)3
mp-696129,2.3831,Li10Si(PS6)2
mp-560026,5.1193,Mg5B3O9F
mp-31517,2.531,Ta2CoO6
mp-29384,2.274,Rb3TlCl6
mp-29075,1.8019,Ga3Bi5Cl12
mp-542140,1.0857,Ta2Tl4Se11
mp-23238,0.8864,Ta3I7
mp-773003,5.3688,Er2P4O13
mp-757021,3.0504,KGdO2
mp-9722,0.6842,Na2LiGaAs2
mp-770701,3.7483,Li2Si4NiO10
mp-555524,4.1656,Na4MgC6(SN)6
mp-555034,1.8929,TeAs(IF2)3
mp-504646,1.4285,In5(BiS4)3
mp-27684,0.9696,Tl4O3
mp-541692,0.6921,Na2In2Sb3
mp-625909,2.7803,Ba(H2O3)2
mp-562102,5.2059,K2S2O7
mp-28315,3.1975,Rb4CdBr6
mp-776315,1.6487,Zr2N2O
mp-568730,0.2688,Ge4Te7As2
mp-560265,4.9438,CaCO3
mp-763507,1.3676,LiCoGeO4
mp-27499,1.9087,BaTeS3
mp-22329,0.5452,NaNd2OsO6
mp-571662,1.9517,KLa(PSe3)2
mp-558801,0.4259,K2Pr4Cl9O2
mp-680760,2.2927,In4Br7
mp-6504,4.0897,BaMg(CO3)2
mp-16872,3.6671,RbLi2Ga2(BO3)3
mp-19893,3.3293,PbCO3
mp-560874,4.0712,BaPb2C2(O3F)2
mp-775103,1.4049,V4(OF3)3
mp-554503,2.0201,ZnS
mp-27600,2.2078,Cd3(PO4)2
mp-22997,3.4419,PbBrCl
mp-14385,3.8436,Ba3Tm(BO3)3
mp-1013922,0.638,LiCr2P2O9
mp-759873,2.25,Sb8O11F2
mp-17750,2.0844,Pr2SiTeO4
mp-571636,1.4386,InCl
mp-23541,2.3665,KSn2Br5
mp-867964,1.6697,Rb4P2PbSe8
mp-1019787,4.2332,K2NaZn(BO2)5
mp-29501,0.9106,Rb3AsSe16
mp-758689,0.8447,Li3CuF4
mp-31292,0.8547,Rb2PdSe16
mp-675800,0.6735,Li5TiP3
mp-768486,3.6732,Sb2(SO4)3
mp-638086,1.431,K3Th2Cu3S7
mp-505702,3.4145,Pb2CO4
mp-600156,3.2604,H22RhC3(N3O4)2
mp-707571,4.1942,Na3SiH11O9
mp-555846,7.1994,BaAlF5
mp-541715,0.6016,Ba3GaP3
mp-703568,5.5549,BaH2(SO4)2
mp-23412,1.3726,SbCl4F
mp-558088,5.6341,AlPO4
mp-556882,5.6423,SiO2
mp-556672,2.5848,Sn(SeO3)2
mp-18957,2.0082,NaMnO2
mp-541684,0.699,K3AlP2
mp-560821,4.4278,Ca2SiO4
mp-13613,7.0132,K2Mg2Be3F12
mp-696815,6.8114,AlH4NF4
mp-769571,2.9284,Ba2Ta2O7
mp-600159,1.3327,NiH4C2(S2N)2
mp-625604,3.7298,H9BrO4
mp-23563,5.5534,SiCl2O
mp-691115,0.9979,Li4Mn5O12
mp-569060,1.4721,Cs2PSe5
mp-14864,3.4477,Cs2Ti(PO4)2
mp-776654,1.1583,Li7V5O12
mp-17394,3.6473,NaYGeO4
mp-768920,4.5219,Ho2(SeO3)3
mp-849384,0.8757,Li11V8(PO4)12
mp-754410,3.8133,CaTm2O4
mp-559143,2.8887,Pb3SO6
mp-761135,3.3397,Li3Sb2(PO4)3
mp-774223,0.5609,K2H2OsCCl5O2
mp-752443,3.3378,Te(S2O7)2
mp-553242,1.2219,NdBi2BrO4
mp-756076,3.6655,TbTaO4
mp-754826,2.9596,CsScO2
mp-37923,1.65,Sm5AgS8
mp-867593,2.8968,Ag2H4(SO4)3
mp-768468,0.3426,In2Bi2O7
mp-16402,2.3656,Tb4(SiS4)3
mp-14131,2.074,K2Pd(NO2)4
mp-771771,3.5547,Ta2PbO6
mp-21964,0.6872,TlCu7S4
mp-553248,1.4415,CsLaNb2O7
mp-567942,1.2478,Cs2ReCl6
mp-6606,2.7457,SrYSi4N7
mp-31003,2.3907,B10H13I
mp-4730,0.9081,Ga2HgSe4
mp-733489,1.9922,SbHC2NCl11
mp-554996,5.3537,K5B19O31
mp-758147,0.5284,LiCu(PO3)3
mp-9798,1.0967,Rb(SbSe2)2
mp-21461,1.236,Rb2PbO3
mp-559298,3.3074,La5Sb4(O4F)3
mp-683905,1.2004,K3Ta2AsSe11
mp-867590,0.4071,LiCu2F5
mp-505396,1.4987,CsNa3PbO4
mp-705300,0.2219,Cr(PO3)5
mp-625687,3.5223,H9BrO4
mp-556297,1.2118,FeS3(NCl2)2
mp-16102,2.1142,ZnAg2P2O7
mp-753054,3.7288,KI(OF)2
mp-772513,1.6701,LiCr3O8
mp-561027,5.5314,AlPO4
mp-753905,2.2484,Tm2Zr2O7
mp-768284,3.764,Li3Sn(BO2)5
mp-774357,1.0507,Na6CoO4
mp-11654,3.8556,BAsO4
mp-2741,7.1148,CaF2
mp-643070,3.1207,Ca4Mg3H14
mp-29815,0.5974,LaAs2
mp-6318,5.3179,KLiSO4
mp-744764,3.2105,Mn7P6(HO6)4
mp-29555,2.122,MoBr2
mp-10492,6.9912,Rb2SiF6
mp-540721,5.6656,NaB5H10O13
mp-19143,2.1224,BaCo2(AsO4)2
mp-626735,3.9759,BaH4O3
mp-624191,0.6334,CuBiPbS3
mp-558387,4.189,TeOF2
mp-27176,2.2848,NaMnCl3
mp-776418,2.9963,CaGd2O4
mp-9130,0.5891,CrSbS3
mp-769967,0.7162,Li3NbV3O8
mp-1019525,4.8405,Ba3ZnB5PO14
mp-28003,7.3896,H6OF4
mp-22621,1.4693,LaTiAgO4
mp-7219,1.3302,Na2ZrSe3
mp-571594,1.124,K3AgSn3Se8
mp-760007,3.2918,Hf3N2O3
mp-572998,3.515,Lu(IO3)3
mp-22916,4.0899,NaBr
mp-674646,1.0626,Ca4Bi6O13
mp-763588,2.1285,LiFe(CO3)2
mp-861906,5.044,BaNa2Mg(PO4)2
mp-695506,1.1889,Na3Ca7Ti7Nb3O30
mp-24121,3.584,Tb(HO)3
mp-4049,0.2296,U2P2O9
mp-18733,3.8659,AlTl(MoO4)2
mp-863289,3.1283,NaAl6Fe3Si6B3H3O30F
mp-780913,1.8256,Na2VO3
mp-764507,1.404,Li5Fe8(BO3)8
mp-8409,3.9882,KYO2
mp-764409,0.6245,Li2CrO3
mp-555982,4.0973,Si2Ge3P6O25
mp-554150,1.6762,Nd3CuGeS7
mp-28585,1.0701,Nb3ICl6
mp-19162,3.122,LaVO4
mp-14091,1.136,AlAgSe2
mp-1009730,0.6909,Ca2Sn
mp-9304,1.1804,DyCuSeO
mp-559519,3.0702,Na4TiAs2O9
mp-8175,0.8836,KTlO2
mp-560008,5.609,PNF2
mp-772185,4.4135,Li6Hf2O7
mp-13194,2.1851,PrSbO4
mp-15395,5.1938,CsBePO4
mp-776763,2.5978,Ti3(WO6)2
mp-761763,0.4364,Li2FeCo3O8
mp-767661,2.3638,Li2VF5
mp-12955,1.2728,HoAgSe2
mp-560721,5.2938,NaCaBeSi2O6F
mp-560577,4.029,BaCaCrF7
mp-756704,3.2808,LuTa3O9
mp-771248,2.9897,Na2Ge2O5
mp-487,0.4422,MnP4
mp-764587,1.4662,LiFe2(BO3)2
mp-757306,0.595,LiCu(PO3)4
mp-10155,0.6438,P2Ir
mp-571314,0.796,K2CoCl4
mp-680148,2.3384,CdI2
mp-604147,2.1905,Na2Li(H2N)3
mp-560939,4.4754,NaLaP2O7
mp-555743,4.1945,LiZnPO4
mp-23572,2.3762,KBiP2S7
mp-768345,3.8413,Ba2B2O5
mp-18856,1.3723,MoO3
mp-28650,1.8073,CsBr2F
mp-620069,0.9338,K3Mo2Cl9
mp-600053,5.522,SiO2
mp-571445,2.5459,HfHg3(SeCl3)2
mp-600001,5.4925,SiO2
mp-19232,3.0699,K2CrO4
mp-850937,1.6657,VF4
mp-769523,0.7748,Na3Mn2P2(CO7)2
mp-677002,1.1801,SrZr12B2I5Cl23
mp-4979,1.6756,AlCuS2
mp-555292,5.1487,PNF2
mp-779227,1.4434,Li24Ti11CrO36
mp-706629,5.2762,NaB2H5O6
mp-757507,2.549,Sm3Bi5O12
mp-29276,4.2535,Cd2P6O17
mp-19064,0.4144,Yb2Fe3O7
mp-28261,1.894,Na4SnO3
mp-676665,2.2351,Ba4Ta2TiZnO12
mp-752733,2.3075,TiGa2O5
mp-707765,3.3829,TeH12(Cl2O3)2
mp-559355,1.5142,Hg3AsS4Cl
mp-18971,0.2409,Mn(PtO2)3
mp-762632,3.0213,LiFeSiO4
mp-643033,4.5201,KPH2SO3
mp-769007,3.1406,YScO3
mp-779434,3.4779,Li5La3Nb2O12
mp-861607,3.5102,KNaNdTaO5
mp-752418,1.7863,La2Se2O
mp-546862,2.2621,HgPb2(ClO)2
mp-777476,1.9998,CrFe2(PO4)3
mp-673650,1.7496,Lu2Se3
mp-554155,2.9461,KSb(PO4)2
mp-570117,1.2346,ErTlSe2
mp-19474,3.4599,Ba2V2O7
mp-769348,2.0097,MgSnO3
mp-554121,3.1728,NaHf2VF11
mp-8836,7.1511,CaAlF5
mp-655591,2.5478,LiB13C2
mp-34036,1.7849,NbBi3O7
mp-504751,3.0145,AsHPbO4
mp-1243,2.4063,Ga2O3
mp-16809,4.6183,Ho2Si2O7
mp-761853,3.1109,Na3PH22(SO4)3
mp-554706,3.7144,AsSe(ClF2)3