id,formation_energy_per_atom,pretty_formula
mp-758430,-2.192423799,LiCuPO4
mp-779306,-2.45867169,Li3Fe(BO3)2
mp-753493,-3.828651684,CeU5O12
mp-13025,-0.742380048,YbZnPd
mp-6850,-2.831986848,Ba2CeC3O9F
mp-5723,-0.645184922,ZrAlNi
mp-542286,-2.27915304,Ba4Na(RuO4)3
mp-862902,-0.091297347,PmDyMg2
mp-755478,-1.46256847,CdBiO3
mp-17031,-2.958170629,KAlP2O7
mp-22745,-0.273242655,Co9Se8
mp-753195,-1.236467984,Li2WS4
mp-708993,-1.649409069,Na2PH15O11
mp-675372,-3.689256447,CaZr4O9
mp-684082,-2.494027514,LiSb(PO3)4
mp-21547,-0.36848269,Na3InSb2
mp-542819,-0.553307968,Cs3B12H12Br
mp-865426,-0.366236518,YbNdAg2
mp-4732,-0.322866251,UGa5Co
mp-644129,-1.996359519,KNiPH2O5
mp-771967,-2.809076379,BaLaCl5
mp-23112,-1.675601591,AsS3(ClF2)3
mp-571566,-0.280423131,Li2ZnSi
mp-1981,-0.605187672,Ba2Sn
mp-850962,-2.431801979,LiFe2(SiO4)2
mp-21556,-0.455651115,Ce3(InRu)2
mp-24147,-0.657354971,AcH2
mp-644499,-0.650841892,CeCoGeH
mp-772424,-2.609226778,RbLi2V2(BO3)3
mp-540059,-2.174821708,Li2Ni(PO4)2
mp-19974,-0.019921198,In2Ag
mp-973785,0.644827059,PbN
mp-30655,-0.394485126,Ga4Ni3
mp-774326,-1.814114199,Ni3OF5
mp-779654,-2.552544686,Na3Nb6O11
mp-560905,-2.068761504,Na2NpH2(CO3)3
mp-685151,-2.7435156,TiO
mp-974059,-0.376412117,LiDyIn2
mp-867161,-0.128130333,LiIn3
mp-626701,-1.619971855,Mn(HO)2
mp-8094,-0.375551997,Ba2Hg
mp-14704,-2.832010352,Li6Y(BO3)3
mp-556741,-3.902595652,KNaThF6
mp-13986,-2.434270163,Li2PtF6
mp-917,0.015513363,CaC2
mp-25907,-2.523497946,LiSn(PO3)4
mp-2290,-0.665824499,NdRh2
mp-22992,-2.7327641,TiClO
mp-1014,-0.184959221,ZrMn2
mp-21390,-1.319296363,La2InCuSe5
mp-28450,-2.76160157,Li4P2O7
mp-7050,-0.868326155,ZrTlCuSe3
mp-22376,-0.602990219,PrNiSn
mp-24614,-1.659272454,BeH8(NF2)2
mp-651358,-2.850557334,Ba2ErCl7
mp-23623,-2.524020287,B5Pb2BrO9
mp-16599,-2.861042676,K3YbSi2O7
mp-770155,-2.589867638,Li3V3(BO5)2
mp-2091,-0.72635117,V3B2
mp-707744,-1.426758098,K2TeH10(NO7)2
mp-24011,-1.409965629,CeHSe
mp-22490,-0.73993012,Sc3(NiGe)4
mp-558320,-3.358934148,K3U3Si2O13
mp-15515,-3.847870777,BaNaAlF6
mp-766391,-2.382461842,Ti(Sn2O5)2
mp-975347,-2.51312271,NdGeO3
mp-19470,-2.152326743,Na4Ni7(PO4)6
mp-19915,-0.555667152,Sr4In2N
mp-20337,-2.866098199,ZrPbO3
mp-571100,-1.095054707,CsAgBr2
mp-31510,-0.318097417,NbCuTe2
mp-568135,-2.181559385,Cs4Sc6CCl13
mp-7634,0.065421456,Cu3As
mp-643735,-0.889341168,H8Pd(NCl3)2
mp-766332,-1.602622185,BaCa2I6
mp-776758,-2.812832041,Li2Fe3F8
mp-30445,-0.207594095,ZrBe13
mp-862338,-0.469117437,Sc2CuRu
mp-553025,-2.440296392,CaBiClO2
mp-569628,-0.629499926,CaCdAu
mp-752407,-3.068421852,Dy2Ge2O7
mp-1703,-0.330593112,YbZn
mp-570196,-0.679685859,Zr5Sb4
mp-28161,-0.767095041,Na3P6N11
mp-781050,-1.976026928,Li4CrSb(TeO6)2
mp-558298,-1.775054093,Zn3TeAs2Pb3O14
mp-655489,-0.82618317,Pb4SeBr6
mp-23706,-0.71014671,YH3
mp-568106,0.034507595,Mg41Al67
mp-30357,-0.274265384,Sr3Ag2
mp-21415,-0.689673582,Dy(NiGe)2
mp-556178,-2.920452677,BaAl2(GeO4)2
mp-667192,-0.941947188,La4C5Cl2
mp-763199,-2.912323026,LiMnF4
mp-769617,-2.443164385,Li2VCrO4
mp-531130,-1.611319665,TlBi25O39
mp-20754,-0.492372511,LiCeSn2
mp-865446,-0.412452112,Lu2AgHg
mp-1700,-1.573299066,AlN
mp-720835,-2.0610499,Mg5H10(C2O9)2
mp-696,-0.670454439,SiPt
mp-24007,-1.637834703,Rb2HBrO
mp-772801,-2.841614287,LuBiO3
mp-770604,-1.633785476,Li2CoH8(CO5)2
mp-3312,-0.510687475,Cs(SbSe2)2
mp-862672,-0.476782217,LiY2Rh
mp-683887,-2.272993943,Ba5Na2Ru3O14
mp-997082,-1.129820383,BiAuO2
mp-11257,-0.797894906,SmAu
mp-8586,-2.859122766,InBF4
mp-621592,-0.688404417,YPbAu
mp-849277,-2.239363675,Li2CuP3(HO5)2
mp-20489,-2.17882823,SrPbO3
mp-768357,-3.506564885,Ba2Ti11O24
mp-1975,-2.012955856,TmN
mp-21005,-0.486787342,GdIn
mp-18429,-1.147896965,KAg(NO3)2
mp-11313,-0.106935824,ZrCd3
mp-27915,-2.124024519,K2BeO2
mp-698206,-2.706741254,Ba5Re3O16
mp-765761,-2.540812032,Li3Co3OF7
mp-34140,-1.875958365,Zn(FeO2)2
mp-6270,-2.761511603,Ba2LiReO6
mp-756933,-2.705611471,TaTlO3
mp-29372,-0.425839809,Cs2GaSb2
mp-755470,-1.093361001,Li2BiS2
mp-862921,-0.643638355,PmInRh2
mp-978304,0.36295367,Mg3Ta
mp-27997,-0.541321002,Ca3Al2Ge3
mp-971648,0.075456254,GaP
mp-173,-0.170752591,MnAl6
mp-705340,-2.717184074,LiVP2O7
mp-972961,-0.751640695,Sc2NiRh
mp-571586,-0.699120074,Nd(SiOs)2
mp-2039,-0.14267477,ScMn2
mp-777902,-2.785471987,Ti3Mn2Cu(PO4)6
mp-11175,-1.040249618,LiZnPS4
mp-707536,-1.544807679,KHSeO4
mp-770700,-3.200173677,Li2Ti3O7
mp-3417,-3.134236595,Ca(BO2)2
mp-1018129,-0.340992713,Pt2W
mp-18652,-2.957572991,Sr3HoRhO6
mp-778385,-1.942923843,B3H3SeO9
mp-782009,-1.947760234,Ca9La5Br33
mp-776074,-2.74059729,CaGeO3
mp-8235,-0.484888079,K2SiP2
mp-542697,-1.720596753,Rb2RuO4
mp-997587,-3.674833757,La7ScAl8O24
mp-559733,-1.719804523,GdH7C2SO8
mp-557918,-1.962625886,KGaAs2O7
mp-23810,-2.297050084,BaAsHO4
mp-28676,-1.970172407,S2O5F2
mp-562230,-0.709568682,Rb3(Cu4S3)2
mp-28930,-0.029839788,KC8
mp-23386,-0.617232126,Sn2SI2
mp-976867,-0.113958793,Pm3I
mp-16044,-0.664245391,Ca(As2Rh3)2
mp-766625,-2.325184204,LiFe2(BO3)2
mp-686077,-3.784069836,Er18Ti14O55
mp-972551,0.345290112,U3Nb
mp-864936,-0.267013271,MnGeRu2
mp-1009817,-0.165163939,TaC
mp-19081,-2.144333378,MnMoO4
mp-10015,-0.339255875,SiOs
mp-558163,-1.269207484,Pb(SeO3)2
mp-766015,-2.198814903,SbOF
mp-636316,-0.470112374,EuIn2
mp-559734,-3.678344835,UOF4
mp-642650,-1.680649521,LiP(HO)2
mp-675122,-0.958986902,Na2UI6
mp-1019898,-3.505753113,LaPO4
mp-16793,-2.585075827,Be3Cd4Si3SeO12
mp-29154,-0.927530959,Hf2CoP
mp-6867,-2.811900551,KCaCO3F
mp-20859,-0.608319316,DyCuSb2
mp-554948,-1.837514731,NaI(OF)2
mp-8939,-0.277417318,Si2W
mp-15951,-3.574108385,BeF2
mp-556422,-2.120869736,NbCl3O
mp-774456,-1.633166499,InH11S2O13
mp-763149,-3.034977345,LiMnF3
mp-774535,-2.92957377,TiNb3(PO4)6
mp-675778,-4.137324099,NaY2F7
mp-755549,-2.959509061,Y2TeO6
mp-570060,-0.834928706,Ce6B2(CBr)3
mp-569282,-0.970035416,LiCa10MgSb9
mp-561242,-1.063815912,TaAgS3
mp-755047,-2.645839336,Ti3N2O3
mp-1017985,-0.066957349,TiAg
mp-999308,0.914310773,OsC
mp-5177,-0.813537382,LuSnAu
mp-29370,-0.325269632,Na3BP2
mp-850410,-2.473520465,Li2Mn3(BO3)3
mp-15567,-1.118008781,Na3AuS2
mp-774929,-2.023674267,Na5Bi2P(CO4)4
mp-971753,0.271918865,ZnGe3
mp-30845,-0.896817596,SmPt3
mp-504862,-2.471861009,Ti4Cd(CuO4)3
mp-21489,-1.559591866,Rb2PbO3
mp-2582,-0.551400822,TiSi2
mp-980044,-0.379694364,YbPrCd2
mp-675419,-2.086007277,LiPrS2
mp-669427,-2.152143594,RbCuPO4
mp-1937,-0.298957226,YbCu
mp-976334,0.613734205,Li3Tc
mp-561317,-2.629023508,Rb2NiF4
mp-10558,-1.507439004,La3(NbN3)2
mp-30432,-0.253300417,Ba(RhPb2)3
mp-4823,0.041556141,Na2PdC2
mp-28734,-2.079808149,Zr6CoCl15
mp-2971,-0.175389393,U(CrC)4
mp-972831,-1.379226201,SiGeN2O
mp-643930,-0.621566071,Eu2H4Pd
mp-770280,-2.505019302,Li6Bi(BO3)3
mp-755373,-3.34081031,Lu2GeO5
mp-767392,-3.100212353,Li7Ti7Nb5O30
mp-625184,-2.188629054,Sr(HO)2
mp-531358,-1.955668991,Sr17(Ta5S21)2
mp-839,-0.037503378,V3Au
mp-19492,-2.655892989,LiMn(PO3)3
mp-867524,-1.390286563,KH4O4F
mp-554079,-0.70892149,FeS3N2Cl5
mp-865187,-0.304451085,MgFeRh2
mp-759835,-0.549488648,CeMgAu
mp-646297,-1.009676295,Hg4Pb2N6O19
mp-756431,-1.852799891,Li2CuSnO4
mp-780396,-1.632445681,SrCa2I6
mp-29343,-2.047900082,NaCu3F7
mp-556036,-3.499322983,Ba3Al2Cu2F16
mp-555230,-3.15479136,Rb2YGa(SiO3)4
mp-1018715,0.032623692,Hf5Pb
mp-27649,-3.656458759,BaU2O7
mp-865912,-0.414096428,LiZn2Rh
mp-643718,-0.478697527,BaMgH4
mp-8658,-1.084024068,CsNaSe
mp-14659,-0.622692044,KAsSe2
mp-743694,-2.833234706,Ba2La4Mn5SnO18
mp-640340,-0.214524335,Ca4MgAl3
mp-22089,-1.212833169,Hg2Os2O7
mp-569581,-0.206037463,Bi2Pt
mp-648984,-0.638417722,LaSiAs3
mp-7022,-0.436763651,V5As3
mp-764234,-2.334678014,Li13Mn3Nb2O16
mp-28289,-0.935158301,SiH3F
mp-13322,-0.657494131,LiGeRh2
mp-697317,-3.107780162,Rb2YTi(PO4)3
mp-757407,-2.052369329,Sr2Tl2O5
mp-980005,-0.571499822,AcYbRh2
mp-30047,0.018469361,Sn2Mo
mp-477,-0.685190101,SmGa2
mp-9518,-2.002614807,NdZnPO
mp-753,-0.027126293,ZnSb
mp-850932,-2.538818222,Mn3(OF2)2
mp-617352,-0.850746672,Te3WICl6
mp-554896,-1.301337542,SbXe2OF15
mp-997043,-0.973640979,PbAuO2
mp-510508,-1.882709107,Ba2(IrO3)3
mp-649177,-2.245276192,ReTe5O6F25
mp-4955,-0.41641644,AlVCo2
mp-555394,-3.092195877,SiO2
mp-721727,-1.596842404,NaBH8O7
mp-867722,-3.080618652,PrNdO2
mp-554015,-1.213144009,CsK(ClO4)2
mp-677372,-2.724247596,Ti10Bi(Pb3O10)3
mp-1016853,-2.815464756,CaVO3
mp-5729,-0.613500687,YAgSn
mp-973142,-0.537912841,ScZn2Pd
mp-8335,-3.448879482,Ba2ZrO4
mp-27829,-1.512669593,Rb2SeCl6
mp-769366,-3.327232317,Nd3SbO7
mp-706,-1.431964073,HgF
mp-540231,-2.60378442,Li2FeP2O7
mp-559356,-0.604953094,Tl3AsS3
mp-541021,-0.384245452,SbAsPd5
mp-980667,-1.295551427,SrBr3
mp-867336,-0.62328402,K2SrCdSb2
mp-2893,-1.125470856,Dy(SiRh)2
mp-864921,-0.74404,MgZrIr2
mp-778697,-3.013013743,LiMnF3
mp-24574,-1.781475168,NdH5(SeO4)2
mp-541832,-1.797880099,Ba2SnS4
mp-1009049,0.781042518,IrN2
mp-42190,-3.341458702,K2NaTiOF5
mp-30069,-0.09266536,CuNi2Sb
mp-977370,-2.062119612,EuOsO3
mp-36252,-1.636064213,Nd5CuSe8
mp-510036,-2.394149767,Fe2Cu(P2O7)2
mp-28931,-1.949219341,Ga2TeO6
mp-757470,-2.166139669,K2ZnP4(HO2)8
mp-754501,-1.689185006,Ca(CuO)2
mp-12743,-0.141408562,CrTe4Au
mp-676881,-3.975295829,Ho4Zr3O12
mp-720222,-3.056606525,Na3CaAl3Si3SO16
mp-571469,-0.215272226,Sm3Mg13Zn30
mp-32633,-1.670674596,Dy6Se11
mp-766823,-3.247166998,Li7Ti11O24
mp-779519,-3.699163132,Ba4Hf3O10
mp-560170,-3.050608307,Nd5Te2Cl3O10
mp-22785,-0.568553903,SmMnB4
mp-6386,-2.064702411,K2ZnGeO4
mp-30957,-3.008159032,Pr(PO3)3
mp-3540,-2.241749838,Li2SnO3
mp-865875,-0.158165882,Li3Ag
mp-30604,-0.627900718,DyGa
mp-755315,-1.66295787,BaTl2O4
mp-560339,-3.470747273,Ca2Zr(SiO3)4
mp-867871,-0.337812201,SmMgZn2
mp-2670,-0.161914156,Nb3Ga
mp-975784,0.026166706,PrY3
mp-22780,-0.362251462,BaIn2Ir
mp-2500,-0.213231346,AlCu
mp-651961,-0.326620832,Nb4Te17I4
mp-29175,-0.901668136,Ca2AuN
mp-20328,-1.079598962,U3Se4
mp-1018152,-0.89085039,LuAu2
mp-21486,-0.342672816,Tm2In
mp-862746,-0.242872045,Sr2LiTl
mp-510293,-1.499162062,Pb3SeO5
mp-20357,-1.027141894,Ce2InPt2
mp-1413,-0.612167348,P2Ru
mp-759433,-2.650192589,Li3CuF5
mp-554736,-1.872904426,CaB2(H6O5)2
mp-974744,-0.286672349,NdZn2Ag
mp-755716,-2.98638473,HoHO2
mp-13163,-0.597345673,TbZnSn
mp-505166,-2.393460823,ErCu(WO4)2
mp-20937,-0.109670595,Cr3C2
mp-19718,-0.614575027,CeInAu
mp-10025,-0.409652632,SiRu2
mp-769074,-3.010821491,Na2LiTi3Al(PO4)6
mp-10755,-0.363680269,TiFeSb
mp-974940,0.21347573,Rb3Mg
mp-541582,-0.401468015,ReSe2
mp-735063,-1.080804741,H7CSN3O4
mp-758225,-1.58464631,Bi10(Pb2O7)3
mp-29265,-2.760795257,Nd2(SO4)3
mp-696129,-1.31305535,Li10Si(PS6)2
mp-560026,-3.128682098,Mg5B3O9F
mp-12990,-0.699981658,Ti2AlC
mp-31517,-2.946180563,Ta2CoO6
mp-976047,-0.278464372,Li3Hg
mp-974411,-0.000905428,Re3Tc
mp-755878,-1.707205458,Cu6OF11
mp-29384,-1.834308961,Rb3TlCl6
mp-29075,-1.212368104,Ga3Bi5Cl12
mp-542140,-0.494420074,Ta2Tl4Se11
mp-23238,-0.478559561,Ta3I7
mp-865708,-0.197323026,LiSm2Ru
mp-773003,-3.157512031,Er2P4O13
mp-757021,-3.057953494,KGdO2
mp-9722,-0.556701489,Na2LiGaAs2
mp-770701,-2.816801553,Li2Si4NiO10
mp-555524,-0.602547294,Na4MgC6(SN)6
mp-1009018,0.04298108,InAg
mp-555034,-1.686354873,TeAs(IF2)3
mp-504646,-0.855368653,In5(BiS4)3
mp-27684,-0.949167297,Tl4O3
mp-541692,-0.245509401,Na2In2Sb3
mp-772826,-2.487958945,K2LiTi2(AsO5)2
mp-625909,-1.362935757,Ba(H2O3)2
mp-562102,-2.259764285,K2S2O7
mp-28315,-1.527114471,Rb4CdBr6
mp-770736,-1.933252735,Na4Cr2As(CO4)4
mp-776315,-2.351315519,Zr2N2O
mp-27668,-0.115894631,Mg2Ga5
mp-568730,-0.056361432,Ge4Te7As2
mp-2698,-0.259910328,YCu2
mp-104,0.00301664,Sb
mp-560265,-2.699110487,CaCO3
mp-763507,-1.889081689,LiCoGeO4
mp-27499,-1.287995821,BaTeS3
mp-22329,-2.769460193,NaNd2OsO6
mp-571662,-0.856627359,KLa(PSe3)2
mp-558801,-2.808670445,K2Pr4Cl9O2
mp-680760,-0.772207452,In4Br7
mp-6504,-2.578292689,BaMg(CO3)2
mp-865482,-0.305121244,VTc2Ge
mp-16872,-2.615527216,RbLi2Ga2(BO3)3
mp-19854,-0.331674711,Pr2In
mp-19893,-1.830227351,PbCO3
mp-560874,-2.368721939,BaPb2C2(O3F)2
mp-775103,-2.968350055,V4(OF3)3
mp-20838,-0.33043916,CaIn4Ir
mp-690564,-2.592352346,La2Mn3PbO9
mp-554503,-1.139926611,ZnS
mp-27163,-0.178437553,Ga(Ag3Se2)3
mp-27600,-2.254138696,Cd3(PO4)2
mp-3515,-0.559168869,Y(CoB)2
mp-28607,-0.552819478,UReB3
mp-770762,-3.01740958,La7(FeO8)2
mp-1018792,-2.052616019,LuS2
mp-772790,-1.769605538,Er(Bi3O5)4
mp-18891,-2.622237056,BaV6O11
mp-865529,-0.634462941,Ti2NiIr
mp-30717,-0.271517734,KHg2
mp-22997,-1.233431473,PbBrCl
mp-14385,-3.333641208,Ba3Tm(BO3)3
mp-5165,-0.95338689,Th(SiRu)2
mp-1013922,-2.530983476,LiCr2P2O9
mp-866030,-3.090949384,EuSiO3
mp-759873,-1.823113143,Sb8O11F2
mp-707376,-2.99525698,NaNb14O36
mp-5934,-0.472849202,Yb(CuSi)2
mp-17750,-3.231985076,Pr2SiTeO4
mp-1201,-0.128117042,Sb2Te3
mp-977411,-0.213504458,NpSnAu2
mp-571636,-1.109165341,InCl
mp-999377,-0.088860344,NbC
mp-9895,-0.542704338,Tc2P3
mp-23541,-1.038574719,KSn2Br5
mp-867964,-0.720905417,Rb4P2PbSe8
mp-22010,-2.763645072,Ta2CuO6
mp-1019787,-2.664375641,K2NaZn(BO2)5
mp-29501,-0.327123989,Rb3AsSe16
mp-12009,-0.252712921,YbCdCu4
mp-1009213,0.42635569,MnSb
mp-758689,-2.641719641,Li3CuF4
mp-31292,-0.273361594,Rb2PdSe16
mp-765691,-2.459203738,Mn6O5F7
mp-770951,-1.764607117,Li4Mn3Ni3(TeO8)2
mp-550,-0.11252159,Al12Mo
mp-675800,-0.758711809,Li5TiP3
mp-768486,-1.916163767,Sb2(SO4)3
mp-1887,-0.513651218,MoP2
mp-638086,-1.636817732,K3Th2Cu3S7
mp-782001,-3.149749415,Li8La4TiNb7O28
mp-18444,-2.285113491,Sr3CuRhO6
mp-505702,-1.740661076,Pb2CO4
mp-9998,-0.227350957,MoAs
mp-976380,-0.641322059,Nd(NiSb)2
mp-600156,-0.984812023,H22RhC3(N3O4)2
mp-4433,-1.037404782,Ce(SiIr)2
mp-707571,-1.747129341,Na3SiH11O9
mp-555846,-4.051589649,BaAlF5
mp-541715,-0.946634497,Ba3GaP3
mp-1018701,-0.559507145,EuSnHg
mp-703568,-2.21969601,BaH2(SO4)2
mp-976806,0.089186394,NiAu3
mp-861735,-0.262528197,AcMgTl2
mp-554040,-1.013574276,CuSeO4
mp-23412,-1.45947357,SbCl4F
mp-850965,-2.467877715,Li2Mn3(BO3)3
mp-558088,-3.117256087,AlPO4
mp-556882,-3.267571211,SiO2
mp-556672,-1.531745785,Sn(SeO3)2
mp-18957,-2.030469006,NaMnO2
mp-541684,-0.481217866,K3AlP2
mp-560821,-3.459414912,Ca2SiO4
mp-13613,-3.598164437,K2Mg2Be3F12
mp-696815,-2.273134415,AlH4NF4
mp-769571,-3.425625754,Ba2Ta2O7
mp-600159,-0.432369909,NiH4C2(S2N)2
mp-625604,-1.232989764,H9BrO4
mp-23563,-2.280725308,SiCl2O
mp-691115,-2.064195327,Li4Mn5O12
mp-569060,-0.648038055,Cs2PSe5
mp-14864,-2.918549819,Cs2Ti(PO4)2
mp-655147,-0.655439878,Ba11(Cd4Bi7)2
mp-767480,-1.762670318,Li3Cu2SbO6
mp-776654,-2.470132829,Li7V5O12
mp-631514,1.761498752,AlB2Pb
mp-21093,-0.552128127,SrPb
mp-17394,-2.880467892,NaYGeO4
mp-9587,-0.885837569,TaMoN
mp-768920,-2.347589056,Ho2(SeO3)3
mp-849384,-2.734995925,Li11V8(PO4)12
mp-754410,-3.837464565,CaTm2O4
mp-559143,-1.847830725,Pb3SO6
mp-9389,-0.687199067,HoCuGe
mp-761135,-2.477884109,Li3Sb2(PO4)3
mp-774223,-1.492644177,K2H2OsCCl5O2
mp-752443,-1.766654841,Te(S2O7)2
mp-635469,-2.295623462,CeCuSO
mp-553242,-2.308503608,NdBi2BrO4
mp-685099,-0.160684727,IrSe3
mp-756076,-3.738853148,TbTaO4
mp-754826,-2.996538833,CsScO2
mp-37923,-2.213023973,Sm5AgS8
mp-867593,-1.593174728,Ag2H4(SO4)3
mp-613,-0.341731887,Te2Pd3
mp-983427,-0.470209354,PmDyHg2
mp-768468,-1.642787706,In2Bi2O7
mp-16402,-1.839419876,Tb4(SiS4)3
mp-14131,-1.190150064,K2Pd(NO2)4
mp-771771,-2.994207919,Ta2PbO6
mp-35718,-2.888807967,Ta4SnO12
mp-21964,-0.385644216,TlCu7S4
mp-553248,-3.216415906,CsLaNb2O7
mp-30207,-1.422559212,La3GaBr3
mp-865472,-0.516435031,VSiTc2
mp-850360,-1.962545911,Mn8O13F3
mp-567942,-1.730624654,Cs2ReCl6
mp-6606,-1.459526544,SrYSi4N7
mp-31003,-0.174422691,B10H13I
mp-11033,-0.516188122,TbAl7Au3
mp-4730,-0.505171063,Ga2HgSe4
mp-733489,-0.802037357,SbHC2NCl11
mp-554996,-2.852236132,K5B19O31
mp-758147,-2.355913088,LiCu(PO3)3
mp-9798,-0.494584558,Rb(SbSe2)2
mp-21461,-1.561716694,Rb2PbO3
mp-20548,-0.261692078,U(Al5Fe)2
mp-559298,-3.210903462,La5Sb4(O4F)3
mp-1017519,1.683960901,IrC
mp-865888,-0.585375465,TiSnRu2
mp-683905,-0.726956249,K3Ta2AsSe11
mp-867590,-2.056193037,LiCu2F5
mp-5322,-2.989369386,Pr3IrO7
mp-20953,-2.364315517,CeScS3
mp-694554,-2.511543999,Mn3(P2O7)2
mp-505396,-1.60849952,CsNa3PbO4
mp-705300,-2.364502927,Cr(PO3)5
mp-5976,-0.825815412,Dy(CoSi)2
mp-29767,-0.30678982,Pt5Se4
mp-976142,-0.358523576,PrDyTl2
mp-631435,1.327843357,ReRuBr
mp-979042,-0.150909134,Tm2BeOs
mp-1013703,-0.282460891,Ca3BiAs
mp-915,-0.353370367,YCd
mp-999376,-0.610759303,NbPt
mp-625687,-1.233303409,H9BrO4
mp-998212,-0.883665909,RbAgBr3
mp-975609,-0.244078267,Li2TlPb
mp-510494,-0.707822598,La5Sn3
mp-556297,-0.677451104,FeS3(NCl2)2
mp-772495,-1.92517454,Na2SnAsCO7
mp-8033,-3.943069684,PuF3
mp-16102,-2.001060032,ZnAg2P2O7
mp-753054,-1.844044755,KI(OF)2
mp-9387,-0.69100175,TbCuGe
mp-996977,-0.452561422,AgAuO2
mp-772513,-1.884782595,LiCr3O8
mp-12890,-0.388880426,HfU3Sb5
mp-359,0.025807569,Cu3P
mp-770793,-1.964042509,Li5Ti2Cu5O12
mp-971933,0.115081735,YZr
mp-561027,-3.130585572,AlPO4
mp-753905,-3.880854657,Tm2Zr2O7
mp-768284,-2.631363837,Li3Sn(BO2)5
mp-774357,-1.405234221,Na6CoO4
mp-11654,-2.106457743,BAsO4
mp-2741,-4.244600292,CaF2
mp-643070,-0.493881692,Ca4Mg3H14
mp-29815,-1.067459731,LaAs2
mp-6318,-2.419275914,KLiSO4
mp-744764,-2.419828417,Mn7P6(HO6)4
mp-246,-3.691626921,TiF3
mp-973442,-0.843439179,Lu2AgPt
mp-29555,-0.687480823,MoBr2
mp-10492,-3.44397384,Rb2SiF6
mp-540721,-2.094052822,NaB5H10O13
mp-19143,-2.00597559,BaCo2(AsO4)2
mp-540687,-0.132854378,Ge3(BiTe3)2
mp-21144,-0.6528494,TbCoGe
mp-30507,-0.342151638,CeIr5
mp-626735,-1.856269282,BaH4O3
mp-624191,-0.688128331,CuBiPbS3
mp-558387,-2.137479693,TeOF2
mp-27176,-1.724494889,NaMnCl3
mp-20024,-0.599304162,LaCuSn
mp-9906,-0.48410818,Y(Re2Si)2
mp-776418,-3.658867321,CaGd2O4
mp-9130,-0.879712472,CrSbS3
mp-769967,-2.524193245,Li3NbV3O8
mp-1019525,-3.035265868,Ba3ZnB5PO14
mp-775892,-2.715060868,Ti3MnSb2(PO4)6
mp-28003,-1.780510874,H6OF4
mp-22621,-2.972727795,LaTiAgO4
mp-20135,-3.155157483,Na2Ca2Ta3O10
mp-777302,-0.600629377,Sn2N2O
mp-30674,-0.407046073,Ti5Ga3
mp-744187,-1.435428846,Na2Ni4Mo4(HO4)5
mp-7219,-1.289916898,Na2ZrSe3
mp-703272,-1.136301414,K5NO4
mp-571594,-0.667855556,K3AgSn3Se8
mp-760007,-3.12772705,Hf3N2O3
mp-572998,-1.510197221,Lu(IO3)3
mp-22916,-1.573703262,NaBr
mp-674646,-2.122967692,Ca4Bi6O13
mp-680536,-0.714223905,Ce5Ir4
mp-12691,-0.885052998,Lu2InPd2
mp-763588,-1.897222002,LiFe(CO3)2
mp-31484,-0.342400211,K4GaAu8
mp-30488,0.029090478,CdHg2
mp-867267,-0.681950165,LiHo2Pt
mp-861906,-2.979262455,BaNa2Mg(PO4)2
mp-695506,-3.297106292,Na3Ca7Ti7Nb3O30
mp-24121,-2.323236356,Tb(HO)3
mp-4049,-3.249130511,U2P2O9
mp-774502,-2.466119483,NbSb3(PO4)6
mp-981200,0.076980715,Zn3Cd
mp-568315,0.009682839,CdCu2
mp-18733,-2.278347433,AlTl(MoO4)2
mp-1107,-0.591736496,Th7Rh3
mp-1018741,-0.416528369,LaCuPb
mp-972528,-0.312933974,SmYAg2
mp-997037,-0.893703541,CdAuO2
mp-863289,-2.92282921,NaAl6Fe3Si6B3H3O30F
mp-780913,-2.235139085,Na2VO3
mp-30798,-0.147908401,NbZn2
mp-764507,-2.377429607,Li5Fe8(BO3)8
mp-8409,-3.108337016,KYO2
mp-675739,-1.581845497,Ce5CuSe8
mp-677151,-2.549253075,YbTiCdSbO7
mp-27861,-0.46193214,Ce(Re2Si)2
mp-764409,-2.164442842,Li2CrO3
mp-555982,-2.635901006,Si2Ge3P6O25
mp-554150,-1.851166593,Nd3CuGeS7
mp-28585,-1.519464047,Nb3ICl6
mp-19162,-3.245813895,LaVO4
mp-865846,-0.666461463,LuHfRu2
mp-5666,-0.475513389,Ho(MnGe)2
mp-14091,-0.621897162,AlAgSe2
mp-1009730,-0.617488742,Ca2Sn
mp-977126,-0.151497949,Li3Ag
mp-21320,-0.295782772,UGaNi
mp-9304,-2.160255343,DyCuSeO
mp-559519,-2.322413533,Na4TiAs2O9
mp-8175,-1.407742524,KTlO2
mp-570322,-0.478398433,Yb2In13Pd6
mp-560008,-2.076616213,PNF2
mp-772185,-2.984166415,Li6Hf2O7
mp-13194,-2.805014946,PrSbO4
mp-15395,-2.891409428,CsBePO4
mp-6723,-2.420331958,Sr3ZnIrO6
mp-776763,-2.855584203,Ti3(WO6)2
mp-761763,-1.572041868,Li2FeCo3O8
mp-10905,-0.99658871,Al3Pt2
mp-20567,-0.350630175,LiGa2Ru
mp-767661,-3.176344951,Li2VF5
mp-11441,-0.493847055,Hf2Ga3
mp-850016,-0.746187184,Fe3S4
mp-5627,-0.606489337,Pr(FeSi)2
mp-756517,-2.232778224,Na3CuBPO7
mp-12955,-1.207887087,HoAgSe2
mp-864955,-0.043984925,Mn2CrCo
mp-1018124,-0.630583391,Ti2Rh
mp-560721,-3.304235736,NaCaBeSi2O6F
mp-4744,-0.672843951,Ca(NiAs)2
mp-1005,-0.597669192,FeP
mp-560577,-3.783270057,BaCaCrF7
mp-975921,-0.217671931,HfRu3
mp-756704,-3.540501189,LuTa3O9
mp-978802,-0.149004142,Sm3Pd