id,formation_energy_per_atom,pretty_formula
mp-1017988,-3.162087656,SrCaO2
mp-567555,-2.164405838,Pr5C2Cl9
mp-567530,-1.807200574,KMnCl3
mp-5481,-1.13280104,Na6CoS4
mp-29062,-4.199691816,ThZr2F12
mp-20662,-0.280013311,Sn4Pt
mp-522,-0.04514751,CuAu
mp-769079,-3.133725087,ScGaO3
mp-19863,-1.101771097,K2CuPb(NO2)6
mp-669400,-0.537527054,ScRe2Si3
mp-8979,-2.834981547,TaInO4
mp-19126,-2.758746764,NdCrO4
mp-2548,-1.019002901,PuAs
mp-10464,-4.192432494,CaF2
mp-2979,-0.381134253,ZnGeN2
mp-771827,-0.96153544,Ca3Pb3I14
mp-753160,-2.210279186,BiOF
mp-28011,-0.690083227,Tl2Sn2S3
mp-755313,-3.95039166,Sc2O3
mp-6241,-2.908900757,LiGa(SiO3)2
mp-769355,-1.033482034,AgH3O2
mp-31755,-3.046106889,Ta2FeO6
mp-690785,-0.44616985,Na2H6Pt
mp-135,0,Li
mp-26856,-2.485295983,LiSn(PO3)4
mp-11340,-0.633347524,Dy(Ni2As)2
mp-550722,-1.79657964,Ba2Tl2CuO6
mp-468,-3.88982708,AlF3
mp-568477,-1.107773577,Rb2SbBr6
mp-12953,-0.873939247,TmAgTe2
mp-570370,-0.245141824,SnPSe3
mp-8951,-1.186299648,SmAsPd
mp-4878,-1.034540218,ZrGeSe
mp-3098,-2.432022878,AlCuO2
mp-1738,-1.530089994,SmAs
mp-19773,-0.65124561,GdGa2
mp-570556,-0.550008335,Sr(InAu)2
mp-557537,-0.76352101,Zn4P6N12O
mp-18908,-2.273657307,Sr2NiTeO6
mp-560423,-1.876275712,KBS4(ClO3)4
mp-769577,-2.325897343,Li2VCr3O8
mp-569794,0.005274214,Ta
mp-22435,-0.880319729,CeBPt3
mp-13573,-1.115409181,Sc5Si7Pt9
mp-793791,-2.506032937,Sm(FeO2)2
mp-504783,-1.870818727,Np2S3
mp-556927,-2.911174994,RbFeF4
mp-620029,-1.323414595,MoCl2
mp-30861,-0.160425394,PuZn2
mp-27670,-1.294397058,Rb4In2S5
mp-777667,-2.468932744,LiV2O5
mp-557179,-0.988530289,NaSbS2
mp-27794,-2.962632814,BaB8O13
mp-774192,-2.48830009,Li2VO3
mp-559765,-1.543642713,KHg2S(ClO)3
mp-775338,-2.337811599,V3Cu2Ni(PO4)6
mp-850378,-1.251020534,H11S2N3O7
mp-14837,-3.114107581,Sm4Si2Se3O7
mp-607126,-0.411438238,Nd(In2Au)2
mp-644015,-1.759231495,KVHSe2O7
mp-555140,-2.01864242,Cs2Li3GaO4
mp-607230,-0.648404484,Ca3Ga3Rh2
mp-605252,-0.495325652,DyGaCo
mp-7791,-3.036316267,Li2GeF6
mp-19061,-2.82432888,LiFe(SiO3)2
mp-559706,-2.975824793,Li3Gd(BO3)2
mp-27549,-0.331806354,K2AgBi
mp-567505,-0.204747938,SiC
mp-12608,-0.075555835,CuPt7
mp-754878,-1.608971767,Cu3OF5
mp-975275,-0.372825832,RbNa2Sb
mp-778114,-2.990873189,Sm2Ge2O7
mp-1007853,0.027971615,Fe3Ni
mp-556831,-0.939393437,AlSeS2N2Cl5
mp-762387,-0.958740929,Li2(NiO2)5
mp-677636,-3.214111738,Sr22Nb10O47
mp-23612,-2.728647931,K3B6BrO10
mp-23185,-0.876219871,XeF4
mp-672217,-0.472641467,La5Ga3
mp-1828,-0.263453087,ThOs2
mp-541162,-3.974489121,Ba2Mg3F10
mp-757192,-2.549793221,SnP2O7
mp-16913,-0.844609465,Ag2SeO3
mp-1437,-0.25407309,LiCd
mp-770588,-1.941667903,Li2FeH4(SO5)2
mp-600027,-3.277566456,SiO2
mp-773526,-2.45958789,Na3Cr(BO3)2
mp-1498,-0.551207298,Al21Pd8
mp-865067,-0.388562996,Li2EuGe
mp-28904,-1.671727105,Na2Te4O9
mp-31238,-2.589341637,Ba3(SbO3)2
mp-760017,-2.984833255,Li2TiO3
mp-559208,-3.417352217,SrTiSi2O7
mp-556646,-2.903594479,RbFeF4
mp-27797,-0.477407332,Li4H4Rh
mp-14587,-0.084870696,ZnP4
mp-867176,-0.632249005,PrCdAu2
mp-4308,-0.779423393,PrAgAs2
mp-647243,-0.413426579,Tm2Ga10Os3
mp-23667,-2.238145615,RbP(HO2)2
mp-40761,-2.569867288,SrLaMnCoO6
mp-767687,-2.594821123,Li4Si2NiO7
mp-34477,-2.133501465,LiSmS2
mp-775962,-2.030607241,Na4V2O5
mp-13579,-1.136389522,ErGePt
mp-631330,0.549112977,LiTaW2
mp-977205,-0.143723426,NaTl2Pd
mp-568095,-1.020504867,Yb(PRu)2
mp-757946,-2.52807382,Li2SnP2O7
mp-567014,-2.154497094,Rb2Te(WO4)3
mp-22612,-0.250026206,FeCu2SnSe4
mp-24153,-0.729951375,LaH2
mp-759360,-2.494491698,LiBi(PO3)4
mp-560622,-3.167135318,CaLa2B10O19
mp-706913,-1.404713852,BeH8(NO5)2
mp-182,-0.502870487,SrGa2
mp-2659,-0.417229014,LiN3
mp-674343,-1.416825262,Ti10Cu7S20
mp-757349,-2.471396918,LiSiBiO4
mp-763489,-2.571971245,LiVPO4
mp-672253,-0.659850479,CuHgSCl
mp-672959,-2.481783031,Li2Cu(PO3)4
mp-27677,-0.656904676,KCu4S3
mp-972112,-3.502666288,Sr2MgUO6
mp-24656,-2.183574076,YH3(SO4)3
mp-757793,-2.732372967,Li2Nb(PO4)2
mp-5439,-0.211595273,Th2Ru6C5
mp-10580,-0.475931596,La(AlGe)2
mp-4573,-0.228770408,TlSbTe2
mp-698350,-1.719315296,Na3AlH10C6O17
mp-24473,-1.923285736,BePH4NO4
mp-35417,-2.804190341,Li3TaO4
mp-1018153,-0.561767677,HfAu2
mp-532413,-1.090652451,Li5B7S13
mp-541337,-2.536356617,BaYb2NiO5
mp-744674,-1.55507461,KVH4O7
mp-601253,-0.978787508,ZrGaPt
mp-631308,0.538691477,SnIrSe2
mp-864981,-0.608547257,Dy2AgIr
mp-5563,-0.835898294,Ag5GeO4
mp-989549,-2.347985041,Cs2PbClF6
mp-22995,-0.227323127,Ag3SI
mp-764056,-1.194851696,Na3(NiO2)2
mp-865241,-0.236940722,TmNbOs2
mp-3211,-3.500725829,Nd2SO2
mp-3835,-1.243696168,Ba(Mo3S4)2
mp-767398,-3.285544326,Gd3AsO7
mp-13155,-0.122222439,Hf2Ag
mp-571336,-0.636549674,La4Pb3
mp-560088,-2.963912363,Cs2Li3F5
mp-772793,-3.083498034,Dy2Ge2O7
mp-675067,-1.921155882,Sm2ZnS4
mp-2363,-0.161176542,HfMo2
mp-768809,-2.40529921,Li3Bi(BO3)2
mp-555750,-1.849332669,Nd2SnS5
mp-35835,-0.231306985,Ag(AuS)2
mp-561635,-1.829604146,CsSmSiS4
mp-559583,-2.292045245,BiP3Pb4O13
mp-866690,-1.574867475,La17Al4(Si3N11)3
mp-3739,-1.242060083,NdCuSe2
mp-17015,-1.977137376,K4GeO4
mp-626417,-1.531873708,CsH3O2
mp-626317,-1.447531635,Ca(H8O5)2
mp-553949,-1.126249868,Ag2Hg2(TeO4)3
mp-9178,-1.349434328,CdSe2O5
mp-762018,-2.425724061,LiCoPO4
mp-972351,0.014593083,Tl
mp-776264,-2.923828602,LiFeF4
mp-350,-0.852205098,Zr5Te4
mp-557311,-2.933725746,Sr2GeO4
mp-27999,-0.359448869,K5CuSb2
mp-18914,-2.274349116,K2MoO4
mp-862929,-0.188591792,Li2PmAl
mp-1907,-0.695842619,TiTe2
mp-685041,-1.823191458,Ho2Se3
mp-510083,-0.803304811,Tb2Ti3Si4
mp-863666,-0.68969226,Er2RuRh
mp-1416,-3.207881805,NbF4
mp-7138,-0.639395518,YbSb2
mp-978524,0.53211511,Si3Ag
mp-760891,-1.608386346,Cu3OF5
mp-28801,-3.740682206,La5Ti4O15
mp-1209,-0.180811947,RbAu5
mp-9363,-2.144269674,RbNdS2
mp-7949,-3.045234381,Rb2GeF6
mp-981234,-0.573264927,Yb2InSn
mp-867133,-3.497898702,Ba2Sc2O5
mp-30711,-0.253993019,Nd2Zn17
mp-8466,-0.598957642,SmNiGe3
mp-689964,-2.080325211,CoP2O7
mp-752734,-1.841455986,LiAg2F4
mp-1005666,-2.577044188,Sc3Al3C2O5
mp-29705,-1.292956591,Rb6Sn2S7
mp-572332,-2.862692836,Cs2Sb2OF10
mp-753731,-1.708969014,Ba2CaI6
mp-698,-3.722546425,U3O8
mp-755349,-1.603656289,Cu3OF5
mp-640372,-0.5283566,Dy5NiPb3
mp-774410,-2.45327942,Li8Mn3Fe5(BO3)8
mp-780234,-2.545842549,Hf2N2O
mp-567910,-0.378897287,CdHg6(As2Br3)2
mp-557473,-2.10952864,K5LiGe2O7
mp-557303,-0.756182611,Ag2NClO3
mp-15703,-0.575551588,BeCN2
mp-541341,-1.524136573,PtF5
mp-555570,-1.724145778,BaCu(SeO3)2
mp-567928,-0.585932955,CsBi3Se5
mp-720586,-1.654940119,CaH4NClO5
mp-1018103,-0.575376943,ZrAu2
mp-780508,-1.903564426,Fe5O7F3
mp-32023,-2.339182901,LiMn2(PO4)3
mp-1014219,-0.192212242,HfZn
mp-755641,-1.835550294,LiCuCO3F
mp-17941,-2.758968289,Na2B4O7
mp-11483,-0.942407105,TmIr
mp-16167,-0.618755868,Na2Sn2Se5
mp-24757,-2.24448281,AlBP2H5NO9
mp-866111,-0.639294908,Ho2IrRu
mp-973866,0.250290843,LuOs3
mp-9035,-2.176885936,NaLuS2
mp-775803,-2.14239891,Ti2N2O
mp-707784,-1.40198113,AlH18(NO6)3
mp-770889,-3.283861882,La2WO6
mp-755445,-2.307602723,Li2CuPO4
mp-17242,-2.860929529,Nb2(PO4)3
mp-781664,-2.475252144,Li3Ti2(CoO4)2
mp-685249,-1.825600662,K2OsO5
mp-768684,-1.10015589,Ce(ClO4)3
mp-27238,-1.818994202,SbXeF9
mp-754141,-3.72913365,Ce3TaO7
mp-972660,-0.815077087,SmHoRh2
mp-554718,-2.580297731,Bi(BO2)3
mp-861893,-0.384708014,Li2LaPb
mp-558243,-2.657268925,Ba2InClO3
mp-5142,-0.403348452,Sn3Te3Ir2
mp-22085,-0.390877123,DyCuPb
mp-13123,-0.77009968,LaGe3Rh
mp-555071,-1.070685876,BrN(OF2)2
mp-770901,-2.019247429,LiFeCSO7
mp-9905,-0.309711918,Ba2Si
mp-759754,-3.117457732,Ti11O14
mp-569883,-0.485969077,Rb2(PSe2)3
mp-2786,-0.193725729,Ca5Zn3
mp-27290,-2.096500889,Sb2XeF14
mp-557122,-1.177707808,RbAu(SeO4)2
mp-674484,-3.764376991,YbCe9O20
mp-641571,-0.771366701,CeAlPd
mp-997009,-1.794689282,BaAuO2
mp-677516,-0.533110161,Rb5NO5
mp-680731,-0.161514211,Tl2Te3
mp-561268,-1.667522759,As3Pb2ClO6
mp-10499,-3.193713602,LiZr2(PO4)3
mp-574021,-0.353287079,Ce2ZnNi2
mp-351,-0.487713076,SiNi
mp-29176,-2.828394309,Na8Si7O18
mp-561150,-0.953905434,Yb(ClO4)3
mp-540856,-0.421863326,Tm8Ga3Co
mp-570356,-0.234010873,Ca5Ir
mp-2205,-0.976850855,LuPd
mp-14780,-0.970063895,Na6MnSe4
mp-924128,-0.632094748,HfNiSn
mp-754355,-2.308146144,Tm(HO)3
mp-11011,-0.952668143,RbNdTe4
mp-770655,-1.957241973,Li3Fe5O9
mp-623836,-0.437120501,ThNi
mp-15842,-0.644489122,Nb2Co12P7
mp-765689,-2.451039334,Li4Co3(OF3)2
mp-559000,-1.389988381,SbSe6IF6
mp-762922,-2.631635619,Li2VO2F
mp-756628,-2.422371201,Li4NbO4
mp-29889,-1.166135835,Tl2PdCl4
mp-15820,-0.715461952,LiHoGe
mp-9846,-0.789290465,RbCaSb
mp-974060,0.189779395,LiDy3
mp-570670,-0.309672738,YOs2
mp-754354,-3.923640631,Ba4OF6
mp-978912,-0.787931462,TbYIr2
mp-763238,-2.367648195,Li2Cr2P4H3O16
mp-1018016,-0.260851196,Ti2AlNi
mp-27895,-0.576553845,ErNiB4
mp-35421,-2.554029557,Ca(LaS2)2
mp-753233,-2.258936644,Sb6O5F8
mp-5487,-3.361072756,Sr3SiO5
mp-638061,-1.736737154,AlInCl4
mp-777394,-0.622924243,Sn2N2O
mp-1007768,-1.507487265,ZnHCO4
mp-6465,-3.121637539,NaTi(SiO3)2
mp-776975,-2.843219765,NbO2
mp-16548,-3.727109032,ZrTiF6
mp-510,-3.08061124,TaO2
mp-760799,-1.778418099,LiCu3F10
mp-1020181,-2.703240446,Na2ZnB6O11
mp-983428,-0.470515541,PmDyIn2
mp-7600,-0.709651396,Th(FeSi)2
mp-676437,-0.610296765,CoPS3
mp-772426,-1.731703346,Li2Cr3O10
mp-21717,0.059900604,Fe7C3
mp-18867,-2.812704048,Ba3W2O9
mp-559502,-3.488981036,Ba3NaNd3(Si3O10)2
mp-768864,-2.966523331,KNdO2
mp-997162,-1.408914993,MnAgO2
mp-557225,-0.724747796,Cu6GeWS8
mp-510085,-0.817597379,Er2Ti3Si4
mp-556164,-1.301876901,Si(AgO)4
mp-628742,-0.352693629,Cs5Sb8
mp-560538,-1.470305152,Na3AlS3
mp-1977,-0.489282061,NdSn3
mp-19124,-2.618743873,Ca3Mn2O7
mp-685515,-1.55354875,TlOF
mp-695403,-3.586882508,Ba2La2MgTi3O12
mp-1009237,-0.76649343,NdN
mp-559805,-2.61741633,HoTeClO3
mp-2375,-0.184193597,NpPd3
mp-761849,-2.906480122,Na5Li3Ti5O14
mp-560155,-3.26893077,SiO2
mp-30461,-0.290543483,BiPd2Pb
mp-29168,-0.925954357,Rb3BiSe3
mp-757111,-2.356364275,SbOF3
mp-973906,-0.575740203,LuGe2
mp-214,-0.659840565,ZrRu
mp-849474,-1.750132822,Li2Mn5(CuO6)2
mp-27911,-1.786282455,BiAsO4
mp-633158,-1.607030911,NaTeH6O6F
mp-641573,-0.096990946,Cr21(MoC3)2
mp-698449,-1.015322424,PH12C2N6O3F
mp-770286,-2.474291946,Li3Sn(BO3)2
mp-29568,-0.870730172,RuS3Cl8
mp-30886,-0.172819314,YZn12
mp-15252,-0.654560002,Cu2GeS3
mp-561112,-1.525302111,Zn2SeCl2O3
mp-12086,-0.13689799,Cu3Pt
mp-867130,-0.085250034,SmHoMg2
mp-861499,-0.37527342,Pr2CuIr
mp-542130,-2.791974354,RbAlBP2HO9
mp-864620,-0.361332962,CaSmCd2
mp-758688,-2.537584016,Li2CuF4
mp-767657,-2.6137465,Li4Ti2Nb3Co3O16
mp-558033,-3.145009032,Na2Ca3Ta2O9
mp-770709,-2.462994399,RbLi2Fe2(BO3)3
mp-780321,-2.078160466,Li3Cu3(PO4)2
mp-505808,-3.12106622,BaEr2CuO5
mp-23472,-0.93377671,Re(AgCl3)2
mp-770948,-2.253104726,Na3CoPCO7
mp-8886,-0.286966151,Tc2As3
mp-769364,-2.207072506,Dy(BiO2)3
mp-979081,0.025662873,TmMg5
mp-976244,-0.045609802,LiMg
mp-33631,-2.495019416,TiZn2O4
mp-13473,-0.596470234,Sm(MnSi)2
mp-572625,-0.549503516,Cs3SrCu2C7(SN)7
mp-764257,-2.699554806,W7(OF5)6
mp-555880,-2.224255321,ZnBi2B2O7
mp-568803,-0.168167529,Mg(B6C)2
mp-973498,0.006826237,In3Au
mp-722263,-1.232324659,ZrH14C2(N4F3)2
mp-3151,-2.868781319,Li3TaO4
mp-23295,-2.217215932,RbCl
mp-541236,-0.577727983,Na5HfAs3
mp-1020023,-2.991744258,Li3AlSiO5
mp-977396,-0.702070447,TbMgRh2
mp-556419,-2.41918604,ReO2F3
mp-755144,-1.685683359,NaLiO
mp-3315,-1.526849619,CaPd3O4
mp-1016880,-0.699982938,ZnRhO3
mp-978919,0.220850415,Ba3Tb
mp-9421,-2.100801554,Ho(CuO2)2
mp-568959,-1.340500226,La4As3
mp-10392,-2.361747138,Sr3CdPtO6
mp-753511,-3.076177989,LiTiSiO4
mp-3457,-2.845635916,ErP5O14
mp-1281,-0.49738594,VIr
mp-29772,-0.459505641,YGe3
mp-752645,-2.633659912,Al2CuO4
mp-557685,-2.276319381,NbIO2
mp-1020027,-2.743706198,Li4P2O7
mp-865465,-0.228397256,VCo2Ge
mp-27827,-2.189993836,Rb2TiCl6
mp-29845,-1.543462984,CsHgCl3
mp-673092,-2.604314392,Li4Sn(PO3)6
mp-28792,-1.008471113,P4N3Cl11
mp-758350,-2.422815499,Nb8Tl8O25
mp-582751,-0.290676681,Y5GaCo5
mp-862261,-0.493093571,Sc2ZnRu
mp-634716,-0.499538797,CuH12(IN)4
mp-558481,-1.174139143,ZnGaNO
mp-17935,-0.41208001,Nd2(ZnGe2)3
mp-3104,-1.435009717,BaZrN2
mp-704632,-2.655345721,Ba2Sm2Fe4O11
mp-8475,-0.338706993,ErCoC
mp-645182,-0.619666506,Sm2NiSn4
mp-984719,0.215923635,BeAg3
mp-763100,-2.886806829,LiMnF4
mp-951,-0.723869947,CeRh2
mp-631365,1.01393156,TeRuPb
mp-4843,-3.83120888,CeZrO4
mp-866714,-1.317929919,La3NiBr3
mp-22188,-0.602721053,DyCuSn
mp-1007666,-0.8941503,HoAu
mp-863732,-0.891068219,Pm2PtRh
mp-978906,0.016614641,Sm3Dy
mp-32384,-2.153923612,Li4Ni7(PO4)6
mp-600111,-3.273148047,SiO2
mp-759330,-0.39133448,Rb4Ge9(H3N)5
mp-557570,-1.774755627,TeAs(BrF2)3
mp-780316,-2.248402722,LiCo2OF5
mp-553308,-2.867575584,CsNdO2
mp-973372,0.019641392,MgIn5
mp-23452,-2.287459553,Sn3BrF5
mp-16966,-0.160551769,Ce(Al10Co)2
mp-1840,-3.503391848,TiO2
mp-653454,-1.971874786,K2ZnCl4
mp-559476,-1.497802247,Dy(IO3)3
mp-21907,-0.593088238,NbSiAs
mp-695354,-3.160544775,Na3Zr2Si2PO12
mp-3589,-2.786357026,BPO4
mp-1020609,-2.379242084,Zn2SiO4
mp-19885,-1.009206892,InGaS3
mp-557702,-0.841610523,K2RuI5NO
mp-684013,-0.287904668,Ba2In13Ir4
mp-626431,-2.100145663,Al(HO)3
mp-984356,-1.053812842,CsIrO3
mp-6475,-3.190025482,NaZr2(PO4)3
mp-998157,-1.181641495,RbSnBr3
mp-504849,-2.486478836,Cs2Li2SiO4
mp-867298,-0.162921336,CeTlAg2
mp-34015,-2.344075793,Mg10(Fe3O8)3
mp-20012,-0.113814832,InSb
mp-867309,-0.702332198,TbVB4
mp-704125,-2.608842066,Nd2Zr3(MoO4)9
mp-755148,-2.125674595,CuSb(PO4)2
mp-3033,-3.047948468,RbTaO3
mp-849319,-1.768650536,Dy(Bi3O5)4
mp-558861,-1.882705069,KI(OF)2
mp-29195,-2.722808892,LiPO3
mp-1016872,-1.799648934,CaIrO3
mp-541275,-2.694898776,Cs2U(Cl2O)2
mp-764397,-2.691343297,Li3V2(O2F)2
mp-864799,-0.054934276,HoLuMg2
mp-707247,-2.188342229,Na4CuP6(H4O11)2
mp-767171,-1.627846551,Li5(NbS2)7
mp-775145,-2.193325684,Li4Nb3Cu3(SnO8)2
mp-770175,-2.012680619,Li2Mn3FeO8
mp-649601,-1.388145717,RuXeF11
mp-9960,-0.492004038,Y3TlC
mp-560950,-1.451185815,K2NaTlO3
mp-775198,-2.900038079,Ti3P6WO24
mp-13182,-2.733939049,Li2TiGeO5
mp-780525,-2.855396238,Mn6OF11
mp-776484,-2.604864181,Li6Sn3P8O29
mp-864623,-0.140620284,ZnCuAu2
mp-631507,0.962751446,BeBiOs2
mp-21673,-0.435979008,Ge2Pt3
mp-27689,-0.266529132,PH4Br
mp-22202,-3.137034303,BaTm2CuO5
mp-7291,-0.433997615,CrP2
mp-1018789,-1.038116733,LiO2
mp-769520,-2.26474584,Na3Mn2P2(CO7)2
mp-676990,-0.874354024,Ba7(Al3Te8)2
mp-554854,-3.192361926,CsLuP2O7
mp-754171,-1.094371,CsRbO
mp-6678,-0.858139183,KHgSbS3
mp-626268,-1.498228037,Ba(H8O5)2
mp-27588,-2.802948126,Be(PO3)2
mp-27243,-1.140451251,K2PtBr4
mp-561735,-0.450187602,Cs7O
mp-767961,-2.820720293,Ti3Mn2P6WO24
mp-9362,-2.134842398,RbPrS2
mp-19988,-0.462464342,SmGa5Co
mp-17412,-3.49492635,BaPr2O4
mp-510725,-2.721891964,SrV3O7
mp-768740,-2.149296296,Li2Bi5B3O13
mp-776640,-2.907850171,Ti5Cr(PO4)6
mp-768341,-2.007608928,Ba2YBr7
mp-769283,-3.377589691,Sr4Ta2O9
mp-554752,-2.647641751,RbLi7(SiO4)2
mp-976256,-0.022802632,Li3Mg
mp-17364,-1.065101091,Th(PRu)2
mp-21742,-2.565774546,Ba5AlIr2O11
mp-556330,-2.533156079,Cs2Ga2B2O7
mp-772116,-1.271722658,LaMgI5
mp-24672,-0.536826807,Zr6Ni(SnH5)2
mp-780108,-1.349200068,Co2O3F
mp-22984,-1.730315117,NaBiO2
mp-18906,-2.587254782,CrPO4
mp-850958,-2.496561738,Li4Mn3Fe(BO3)4
mp-631343,0.615840264,LaRe2W
mp-961675,-1.035696599,ScNiP
mp-571296,-0.639344131,Er(GeRu)2
mp-28848,-2.408622368,Ca2Bi2O5
mp-3855,-3.280545272,Na2BeF4
mp-779200,-2.151054578,Li4Nb2Cr3Ni3O16
mp-775784,-2.550619034,Hf2N2O
mp-557072,-3.285035394,Ba3TiNb4O15
mp-12834,-0.142716023,ThCu6
mp-1009648,1.563910146,PtC
mp-864734,-0.693324848,HfInPd2
mp-989639,-3.032669041,Cs2KInF6
mp-13998,-2.086561658,Na5AlO4
mp-542207,-2.387215812,Ba3LiOs2O9
mp-973181,0.218385849,Mn3Zn
mp-973586,-0.339384677,Lu(AlC)3
mp-775387,-1.865269577,Li4Fe3Co2Sn3O16
mp-975394,-1.062572351,RbBeO3
mp-776004,-1.819398166,Li4CoO4
mp-755647,-1.411050701,CaPt3O4
mp-972935,-0.413475828,ScZnNi2
mp-766274,-1.070805829,Cu2H3NO6
mp-571655,0.798132286,B4C
mp-998970,-0.243103844,TiFe2Sb
mp-11623,-2.951879813,LaInO3
mp-556244,-0.881763461,Xe2NO2F13
mp-18019,-2.997362086,K3Sm(PO4)2
mp-706655,-2.106194835,Na2B4H8O11
mp-776245,-2.295101261,Zr2N2O
mp-30004,-1.494233089,Rb4Br2O
mp-554755,-3.271543542,SiO2
mp-555005,-2.816113241,Na3Mg2P5O16
mp-977423,-0.476839284,Yb2ZnRh
mp-5408,-0.986819612,Ag3AsO4
mp-7471,-1.68204964,Li3AuO3
mp-769463,-2.633606248,Li11Ti8Fe5O32
mp-761686,-1.74076815,Na2BiO3
mp-703370,-3.112214215,Ca13Si10H12(O17F5)2
mp-760994,-2.011560031,NaSbO3
mp-568108,-0.803050564,InBr2
mp-862876,-0.293936185,PmAg2Pb
mp-772900,-2.999094579,Sm2TeO6
mp-20690,-0.574439479,NdFeSi
mp-695895,-1.181788758,K4Ba2N7O16
mp-622110,-2.20729228,Ba2ErCu3O7
mp-531523,-2.326042008,LiGa5O8
mp-561966,-1.719722877,Rb2U(N2O7)2
mp-31303,-1.793069217,Pr4Se3N2
mp-30568,-0.049490257,Zn13Co
mp-4038,-2.282469267,Sm3S3N
mp-632758,-2.105383854,CaP(H2O3)2
mp-23051,-0.728344505,NbSeI
mp-675452,-1.745466622,Ti20H2N17
mp-583630,-0.972358309,Ba2SnTe5
mp-616220,-0.444569121,Rb3(Cu4Se3)2
mp-4983,-0.382164805,Nd7Al7Co6
mp-977555,-0.496779627,MgNbRh2
mp-556530,-3.394480548,LaSc3(BO3)4
mp-20411,-0.080170513,InN
mp-10283,-0.679134166,SmSi3Ni
mp-703542,-1.257346893,CdH8(NO5)2
mp-764763,-2.081137504,Li7Mn4O12
mp-6181,-1.079235302,NaNb(CuS2)2
mp-756063,-2.825795497,RbNbO3
mp-771568,-1.580309968,SrCa2I6
mp-996970,-1.140750596,AgBiO2
mp-23843,-1.642979047,LiHSeO3
mp-772440,-2.671911027,Li2Mn(BO2)5
mp-705059,-1.94141141,TlNi4(PO4)3
mp-556822,-2.390456379,Na2CuP2O7
mp-553932,-2.60647663,GaPO4
mp-26950,-2.448097023,Sn2(PO3)5
mp-4820,-3.581386592,ZrSiO4
mp-24383,-0.725739602,Mg(H2N)2
mp-735513,-0.882051564,CoH20S2N6ClO4
mp-22313,-1.374757615,Na2PtO2
mp-753581,-3.890148343,LaUO4
mp-672221,-0.21914999,Co21(B3W)2
mp-7541,-0.006536849,SnP3
mp-767820,-2.599385653,Li4V8O13F3
mp-768417,-3.709106752,LaAlO3
mp-1009458,0.101558346,NbC
mp-605878,-0.227034788,La4MgRu
mp-31181,-0.326832262,Er3Al2
mp-11461,-0.372317138,HoHg2
mp-865928,-0.741812451,Ti2TcPt
mp-28035,-0.259391227,BaP10
mp-2041,-0.388057957,HoZn2
mp-979966,-0.167522798,Yb2Cr2C3
mp-695113,-1.051250948,P4H35C4(NO)16
mp-10199,-1.463262057,Mn(NbS2)3
mp-769349,-3.404339692,BaTa6O16
mp-569151,-0.457245118,MnGaPt
mp-567196,-1.80308514,Cs3Sb2Cl9
mp-4593,-0.187135094,Mn3AlC
mp-976404,-1.450291753,NaF3
mp-556489,-3.008930108,Ta2SnO6
mp-3193,-2.918801595,Na2Si2O5
mp-698365,-1.125487019,MgH10C4(N2O3)2
mp-1020019,-2.188907055,Li2PNO2
mp-4158,-2.9931772,Nd2CuO4
mp-973579,-1.477645525,FePbO3
mp-23482,-2.248904609,BaBiO3
mp-622618,-2.332543293,BaLaNiRuO6
mp-974634,-0.210884706,LiAg2Pd
mp-3797,-1.206237971,K3AsS4
mp-642655,-3.74480766,K2GdF5
mp-35040,-0.120105957,LiMg9B20
mp-542289,-0.838681701,HgNO3
mp-23083,-1.686294944,KAs4BrO6
mp-559454,-3.016876478,Cs2KFeF6
mp-10644,-0.600590137,TaTl3Se4
mp-14012,-0.019883555,Cu3P
mp-779898,-1.341199571,Na6NiO4
mp-760078,-3.515629043,Ba4Ti11O26
mp-772317,-1.183033873,Li3Co(NO2)6
mp-505315,-2.061065476,Ba2LaCu3O8
mp-20256,-0.370681788,K3InP2
mp-568105,-2.311272845,Ba2Zr6BCl17
mp-767447,-2.797610374,LiVSiO4
mp-543042,-2.384691842,ScP(H2O3)2
mp-582988,-0.907693258,Bi12PtCl12
mp-775824,-2.348574444,Zr2N2O
mp-756029,-2.276181439,Zr2N2O
mp-13156,-0.119866786,HfAg
mp-554626,-1.185417088,Ba(BrO3)2
mp-768132,-2.18838904,Na2GePCO7
mp-768150,-1.629855227,LiBi3(BrO2)2
mp-643246,-0.525466807,YbMgNiH4
mp-677572,-2.952776208,Na8Al11Si13(AgO16)3
mp-646,-0.32088965,PrCd
mp-29094,-3.652995254,Nd3PO7
mp-582293,-0.499449172,TbInNi
mp-625111,-1.233647254,H8PtO6
mp-23883,-2.758207847,Be2BHO4
mp-568592,-2.091724845,ZrNCl
mp-571020,-0.314712035,CsMgH3
mp-555188,-3.017693768,Ba17Ho16Zn8Pt4O57
mp-556436,-2.190933772,Sb2BrF15
mp-788,-0.057307645,CoTe
mp-1005760,0.977269206,Tl3Os
mp-12004,-0.536021086,Er2Al3Si2
mp-752467,-3.189514313,NbO2F
mp-37873,-1.684630644,Li3ErBr6
mp-556123,-3.359205997,Sr2Sc2B4O11
mp-28883,-2.503133739,GeP2O7
mp-560902,-2.987331344,MnF2
mp-764679,-2.363574342,LiFe2(BO3)2
mp-7439,-0.329302576,K3Cu3P2
mp-11467,-0.476486394,NdHg
mp-557080,-0.672615461,SiH17S3N5
mp-571219,-0.592944772,Tl3BiI6
mp-690650,-1.071733648,ZnH4(ClO3)2
mp-693763,-2.10448961,Al8P8H34N7O36F5
mp-979968,-0.521498476,Yb2CdHg
mp-976259,-0.573371402,LiTmRh2
mp-2685,-0.170759215,HgPd
mp-19060,-1.436113842,Sr2Mn3(AsO)2