id,formation_energy_per_atom,pretty_formula
mp-20482,-0.756805723,EuAgP
mp-31421,-0.624038029,PrAgSn
mp-554395,-1.58591133,Na5Li3(TiS4)2
mp-3070,-2.083945445,Na2CO3
mp-642428,-0.502030063,Y3Al19Ni5
mp-14161,-3.327095442,Sr4Al6SO16
mp-647347,-0.289380937,Np2InPt2
mp-8467,-0.578986002,YNiGe3
mp-672696,-0.628433982,Hf2Nb3Ge4
mp-581913,-0.713810727,Sr11(Ge2N3)2
mp-573568,-0.725385371,K2TcI6
mp-865431,-0.627264824,YbZnAu2
mp-20982,-2.47259,K3Cu2F7
mp-36866,-2.845627866,Al2CdO4
mp-556589,-1.336880874,GaH20C2S2NO14
mp-3934,-0.603465544,Cu3PS4
mp-23704,-0.229244577,NaAlH4
mp-675250,-2.769919364,KBi2F7
mp-23730,-0.287677268,NaMgH3
mp-31012,-1.17010673,K2(NbBr3)3
mp-998973,-0.296517327,TiFeCoSb
mp-4431,-0.387231155,Ag3AsS3
mp-18654,-0.027204717,Cr3Ga4
mp-504594,-1.008176618,ZrBr
mp-699447,-1.591906725,RbLiH4S2(NO3)2
mp-1008642,0.537247226,UC2
mp-31614,-2.288951847,Li3Co3(PO4)4
mp-561015,-1.246367001,Y9C4I8O
mp-546350,-2.377380544,TmBi2BrO4
mp-7427,-0.677751243,Ba(ZnAs)2
mp-14635,-0.86247404,Rb2VAgSe4
mp-764648,-2.966400545,LiTiO2
mp-558836,-2.654917222,MoF6
mp-977188,0.211416856,Li3Dy
mp-977463,-0.328485182,MgMnRh2
mp-1425,-0.114446664,TiCr2
mp-560603,-3.071818144,Na2MgSi5O12
mp-976114,-0.316414021,Li2CdHg
mp-775215,-2.004485099,Li10Cr3Fe3(NiO8)2
mp-27998,-3.005426051,KNb3O8
mp-780877,-2.46986479,Li2Mn3(BO3)3
mp-3556,-3.671612422,Tm2SO2
mp-1013713,-0.146272435,Ba3BiP
mp-417,-0.18571027,MnRh
mp-768027,-2.321539,Na2MnPCO7
mp-770380,-3.062492379,Ta3InO9
mp-765538,-1.648367183,Li3Co2NiO6
mp-22713,-0.499101701,Ce2Ni2Sn
mp-504864,-2.383132034,YCu(WO4)2
mp-865746,-0.127024205,GaTc2W
mp-675682,-3.266797509,Al11NO15
mp-757001,-3.997350267,Y15TmO24
mp-17621,-2.380346396,CsReO4
mp-570042,-1.03416582,PrAlPt
mp-779090,-2.417262107,VO2F
mp-999203,0.150653893,ScC
mp-776226,-2.545648525,Hf2N2O
mp-28926,-1.149184736,Ba5(TiN3)2
mp-561443,-1.658520941,Ba3(PS4)2
mp-560633,-2.071378745,Al2SnCl6O
mp-3037,-2.265499056,UTeO
mp-541975,-1.311668685,Rb3Ta2S11
mp-570554,-1.043751573,Tb(PRu)2
mp-552089,-1.853370546,Sr2Cu3O5
mp-29149,-1.021502769,Li4NCl
mp-8539,-0.743689437,SrSnP
mp-769561,-1.742926017,Li4Mn3Fe3(NiO8)2
mp-17304,-2.306676079,Ba4Ru3O10
mp-758948,-1.678984771,Cs2H6CO6
mp-639306,-0.394906305,CeBC
mp-625147,-2.989605985,GdHO2
mp-505229,-0.253343842,Al3FeSi2
mp-12742,-0.491474144,MgPd3
mp-631561,0.959660778,ZrAgMo
mp-27125,-1.978673169,Na6MnCl8
mp-3487,-3.306051248,Ca3(PO4)2
mp-685878,-1.125633846,Mg9(In13S24)2
mp-19185,-2.452469151,Mn3(BO3)2
mp-740722,-1.60973447,Na3GeH11O9
mp-4262,-0.055502049,BeAlB
mp-29087,-0.415924198,Ba2(SnSb2)3
mp-531661,-3.573764851,Nd10Ti12O39
mp-772156,-2.87637304,ErAsO4
mp-601371,-0.799024022,GdSi
mp-760762,-3.315753082,NbOF3
mp-865319,-0.403886812,Tm2CuRu
mp-22144,-0.380218502,Ta2InC
mp-191,-0.860053845,YRh
mp-569571,-0.391569526,Nb3Sb2Te5
mp-559053,-2.20102964,NaY(SeO3)2
mp-561442,-4.019465142,Y2Hf2O7
mp-558235,-3.867113539,CaTaF7
mp-768348,-1.121973283,Sm(ClO4)3
mp-11143,-0.194272288,BaCu9Si4
mp-867940,-2.977142682,Rb2U2O5
mp-777481,-2.072038075,Ba6YBr15
mp-504852,-1.630881205,Cs2Na3InO4
mp-972639,-0.724193128,SmDyIr2
mp-775197,-2.611053,Mn3Nb(PO4)4
mp-31311,-0.30124332,Ga9Ir2
mp-758240,-2.728187401,LiTi(PO3)4
mp-29763,-1.209163277,RbMnBr3
mp-17064,-3.015372011,Gd2Sn2O7
mp-676038,-0.698816761,Ga5(PS)3
mp-13218,-0.170369716,YMg2Cu9
mp-676499,-0.81390715,Cu6PbO8
mp-23373,-2.251480319,BaZnCl4
mp-865592,-0.357078181,Y2ZnRu
mp-605503,-2.405108682,CrP3(HO5)2
mp-626282,-1.479863844,Sr(H8O5)2
mp-24992,-0.842695944,FeHO2
mp-774414,-2.759050457,Ti3Mn(PO4)6
mp-22971,-0.668826003,SbSBr
mp-765697,-2.625263465,Li2TiFeO4
mp-770726,-2.094174318,Li9Al(CoO4)2
mp-1589,-0.097739546,TiCr2
mp-865534,-1.55005889,YBr2
mp-865262,-0.468861008,TmTaRu2
mp-557472,-3.091466766,K2Be2(SiO3)3
mp-8357,-0.521476248,UTe3
mp-974641,0.029421329,K3Tl
mp-756427,-1.287437055,Li5SbS4
mp-769713,-2.367308701,Na4B4Sb2SO16
mp-977425,-0.278744092,Ta2CrRu
mp-540784,-3.348815544,Rb2Ti6O13
mp-865215,-0.631434912,TmHfRu2
mp-2553,-0.176959697,HfBe2
mp-978986,-0.713288412,Sr(GePd)2
mp-867341,-1.175816073,CsAcTe2
mp-558277,-2.566036178,Ti3(BiO3)4
mp-20208,-0.336523716,Sm(Sn3Ru2)2
mp-984724,-0.283718731,Ba2TlZn
mp-753314,-2.669635315,Eu2SeO2
mp-2618,-0.325584331,DyAg2
mp-560772,-3.037561398,Mg2B2O5
mp-582648,-0.579438959,RbRe3Br10
mp-11851,-0.489162062,ErCoSn
mp-769763,-1.759196848,Li5Cu(HO2)2
mp-19449,-2.145338464,NaVCdO4
mp-569745,-0.572368785,YbMgSn
mp-651688,-1.594209932,Si4Ag10O13
mp-17043,-2.079658394,Tm2ZnS4
mp-23204,-1.054744689,FeCl3
mp-29222,-3.397530633,Ba2Si3O8
mp-4676,-0.450927525,La3(B3Ru4)2
mp-28871,-0.478569674,In3SnI5
mp-697022,-2.789337378,Ca6Si2H6O13
mp-27897,-1.597945877,Ba(NO2)2
mp-779920,-2.871753652,Gd2W2O9
mp-18147,-2.804251081,LiGaSiO4
mp-26594,-2.32826261,BiP2O7
mp-753860,-2.004275876,SiBi3O7
mp-13798,-2.716682642,K2NaTlF6
mp-541067,-0.671809799,HgNO2
mp-631572,0.987845506,GaReAs
mp-867915,-0.436173861,ScGaCo2
mp-15002,-2.564151235,Sr2CaIrO6
mp-28856,-0.963931114,Na7Au5S6
mp-557600,-1.953138405,SbC2N(OF3)2
mp-766288,-1.712957727,Ba2CaI6
mp-23442,-1.810734521,KCdCl3
mp-976414,-0.101434824,Li3Zn
mp-980034,0.01044522,Yb3Mg
mp-757394,-3.469865969,LaTi6O12
mp-32564,-1.966986911,NdO3
mp-862689,0.044055187,Cs3Rb
mp-5079,-2.895587217,KSbF4
mp-559489,-3.209344429,K2ZrSi2O7
mp-867158,-0.299245759,SmCd3
mp-20205,-2.248667839,Yb2Cu2O5
mp-556038,-2.97532116,Ba3In(BO2)9
mp-1515,-0.652806945,ZrSi2
mp-542806,-1.261855562,Ce3CuSnSe7
mp-23800,-2.094339243,KHSO4
mp-978100,-0.362033632,Pr2InAg
mp-673801,-4.18249828,Ca3NdF9
mp-684934,-3.651492056,U5O11
mp-14607,-2.054473333,KSbO3
mp-571472,-1.307552465,Ce3CuSiSe7
mp-770296,-3.014401702,La4Zn3O9
mp-3848,-2.3748,BaGe4O9
mp-567317,-0.436426561,Nd(AlGa)2
mp-760417,-1.375445213,Rb4I2O
mp-974708,-0.332709944,NdTmTl2
mp-1006099,-0.579096896,Lu(BRh)4
mp-19068,-3.236875224,TmVO4
mp-553924,-1.209518041,Ag4PIO4
mp-972659,-0.670899725,SmCoSi3
mp-973826,-0.403164601,LiHoSn2
mp-675593,-1.382138437,K3(VS2)5
mp-20910,-0.727809004,LaGe3Ir
mp-752948,-1.77198773,LiAg2F4
mp-20262,-0.05565931,Pu3Pb
mp-569892,-1.571595534,Ca9B2(CCl2)4
mp-12171,-1.598347656,K6MgO4
mp-767753,-2.931158723,Li2Fe2Si8O19
mp-4156,-3.057642813,Li2ZrO3
mp-769702,-1.927699419,LiMn4O8
mp-9392,-3.351895897,Sr4Al6TeO12
mp-769277,-2.402287281,Yb2TeO2
mp-684690,-1.676321876,Sc2Se3
mp-862673,-0.265293288,LiY2Ru
mp-690617,-2.0999475,LiMn3Al2(HO2)6
mp-568058,-0.462693407,YbIn2
mp-4454,-0.487293744,CeCo3B2
mp-13171,-0.216859674,YMgCu
mp-17956,-3.65203849,Ca2UO5
mp-29392,-1.925036666,Na2TiCl4
mp-4865,-0.675742629,Er(NiGe)2
mp-20531,-0.604090706,NdCoGe
mp-625998,-1.836525141,LiHO
mp-558323,-2.515212763,SrBi2B2O7
mp-555477,-0.853713386,Ag2H3IO6
mp-28980,-0.951639998,K3BiSe3
mp-776118,-2.412820278,Mn3FeSn2(PO4)6
mp-2131,-0.515918176,SrN6
mp-1001011,-2.806973818,TaO3
mp-997014,-0.969193111,PbAuO2
mp-1019967,-1.480590542,LaSi3N5
mp-631323,0.856095811,HgOsPb2
mp-22630,-1.896201843,Sc2PbS4
mp-42255,-3.20673969,NaCaNb2O6F
mp-572271,-2.601537534,Cs3P7Pb2O21
mp-764142,-2.303718871,Li5MnV3O8
mp-17455,-2.416054086,K7Ta(SO4)6
mp-510710,-0.985571066,Cs2AgSbS4
mp-3930,-1.929348645,Sc2MnS4
mp-31454,-0.382497537,TaSbRu
mp-28808,-2.020796556,TlReO4
mp-561584,-3.313847642,Gd2GeO5
mp-6226,-2.367692387,NaSn4(PO4)3
mp-753179,-2.267358623,Li2CuPO4
mp-976828,-0.011248145,MgPb3
mp-989564,-0.586339306,LaOsN3
mp-554370,-1.672498491,TiSCl6O
mp-22903,-1.490830465,RbI
mp-30961,-0.690769043,Ca7Tl3N2
mp-619510,-0.83014076,CsHg2Br5
mp-10528,-0.721062754,Ho2AlSi2
mp-768978,-2.809292067,Ho2(SO4)3
mp-5381,-1.516322963,U2PN2
mp-541971,-0.771190963,Tm2Ni12P7
mp-4370,-0.781940004,Sr(AsPd)2
mp-17160,-2.940524093,DyPtF7
mp-637614,-0.981357808,Zn3(InS3)2
mp-15791,-2.191087281,LiErS2
mp-795621,-1.61443881,Ca2CrO8
mp-771978,-1.70496015,Ga2HgO4
mp-23808,-2.906082776,KScBP2HO9
mp-542839,-0.094019943,TlSbAu
mp-778832,-2.484964458,Li3Mn4(BO3)4
mp-28653,-3.534414665,NdTa3O9
mp-761415,-0.848508966,CuNi3O4
mp-867824,-1.658008367,LiAg3F8
mp-769187,-2.437460227,Sn5P6O25
mp-29395,-0.901554551,NaAlI4
mp-999083,-0.085114117,Ti2MnSn
mp-20908,-0.425710145,Ce(BC)2
mp-555231,-2.910870581,Ba3Bi2(PO4)4
mp-697913,-2.329298607,HfP2(H3O5)2
mp-1008998,-2.183596451,LaS
mp-531882,-1.048531882,U7(Pd3S4)8
mp-559949,-2.28801228,Zn3(BO3)2
mp-22425,-0.706125361,Sc2FeB2Ir5
mp-561545,-2.224765174,Sn4P2O9
mp-559586,-3.201097678,BaNa2Nd2Si4CO15
mp-761169,-1.656715668,Zn2Hg2H2S2O11
mp-29052,-0.552753633,Cd(W3Br7)2
mp-15500,-1.119323313,Sr4TiP4
mp-20034,-0.526844143,CaPb
mp-7498,-0.685625688,Ti5Te4
mp-867189,-0.329244338,Pm3Pb
mp-555284,-3.365171113,Ba2NdAlO5
mp-20341,-0.205625145,U(MnGe)2
mp-976358,-0.168315963,Nd3Al
mp-8331,-0.229658646,Li12Mg3Si4
mp-998195,-1.714709949,RbInCl3
mp-761184,-2.084250914,Na2SnO3
mp-972373,0.0205024,Tl
mp-28408,-1.49782588,KTcCl3
mp-771645,-1.665799242,Sr2CaI6
mp-560535,-2.9274677,K4Sr(SiO3)3
mp-771508,-1.970937296,Li6Fe3Sb3O16
mp-4666,-0.200382234,CdSiP2
mp-557752,-2.088247717,CsHSO4
mp-754524,-3.517463423,CeTiO3
mp-779166,-1.225646772,LiCo3NiO8
mp-542537,-0.49856441,SrIn2Rh
mp-585354,-2.58151339,LiCr2P3O10
mp-21232,-0.753018606,TmInRh
mp-13326,-1.878143096,PrLuSe3
mp-867157,-0.400484269,SmCdHg2
mp-989534,-1.103727123,LaMoN3
mp-680374,-3.208426611,KAlSiO4
mp-9318,-1.122210883,KZrCuSe3
mp-571244,-0.304181065,Nd10(B3C4)3
mp-19943,-0.615416724,YCuSb2
mp-27398,-0.657643466,TlBr2
mp-18635,-0.751839367,Sr6GaN5
mp-973335,-0.782701569,Hg2H6CN3Cl5
mp-4558,-2.312981186,Li4GeO4
mp-764387,-2.360151072,MnOF
mp-5821,-1.063986488,TaAgS3
mp-554852,-2.205431907,Y2Te5O13
mp-754519,-1.816546609,LiNb(TeO4)3
mp-29008,-1.541044957,Li6MgBr8
mp-697558,-1.120085485,SbH12C2N6F5
mp-7238,-3.478171744,NdBO3
mp-165,0.010696565,Si
mp-19224,-2.689402371,Ca3MnZnO6
mp-15572,-0.861589434,Na3Ca3AlAs4
mp-754158,-2.973481303,KNdO2
mp-1180,-0.36148547,MnPt3
mp-10161,-0.391162491,KZnSb
mp-22942,-2.25017954,BaBiO3
mp-705479,-1.397497168,SnH6Cl4O3
mp-720300,-0.603375685,H4CSN2Cl
mp-3563,-3.285652595,Ba5Nb4O15
mp-559551,-0.620580171,Cu4Bi4S9
mp-756401,-2.555625558,TaAsO4
mp-554260,-2.62671805,SnSb2As2F18
mp-9459,-0.323291309,Y4C5
mp-754086,-1.05469156,Li2CuS2
mp-690919,-2.86160586,Na8Al11Si13(AgO16)3
mp-15783,-2.19547602,KSmS2
mp-1900,-0.56704265,CaAs3
mp-643277,-1.804468055,SiH6(NF2)2
mp-752451,-1.097843161,Zn(CuO2)2
mp-782637,-2.096809092,Na4Cr2P(CO4)4
mp-775866,-2.353670316,Zr2N2O
mp-865359,-0.281457201,Tm2MgIn
mp-765358,-3.044199514,Li3VOF5
mp-978951,-0.400427462,SmAl
mp-643387,-2.603892225,AlH2PbO2F3
mp-766351,-1.700694819,Ba2CaI6
mp-764034,-1.643787076,Na(FeO2)2
mp-20835,-0.842209663,CeSnIr
mp-768597,-2.793991764,SrLaCl5
mp-754125,-3.080279218,NdO2
mp-17839,-1.812922524,K3Na(SeO4)2
mp-6616,-2.207471326,Ba2HoCu3O7
mp-775918,-3.059633559,LaTiNO2
mp-770714,-2.353228678,LiAlFeO4
mp-554993,-0.615427554,Pd3(PbS)2
mp-865738,-0.456161186,LiPrHg2
mp-641065,-1.860746286,HoMn4(CuO4)3
mp-10517,-3.104555338,LiScP2O7
mp-703521,-1.99826075,Na5P3(H3O4)4
mp-505698,-1.411652798,SmH18(IO3)3
mp-30108,-0.136660865,P2PbAu2
mp-766301,-1.703677427,Ba2CaI6
mp-972353,0.219047856,U3Pa
mp-1013547,-0.73003074,Ca3P2
mp-24759,-1.231881001,ZnH20Se2(NO7)2
mp-774238,-1.852874306,Li4Nb(FeO4)3
mp-28472,-0.267120338,Er10Ru10C19
mp-779888,-2.489668113,Li3Mn2Fe(BO3)3
mp-1329,-1.405034626,LaTe2
mp-766276,-2.36699165,Ba2In2O5
mp-19005,-3.686032213,Y6WO12
mp-721851,-2.307506899,BHO2
mp-631288,0.917551694,LaGeOs
mp-971769,0.014066127,Tm
mp-558380,-2.94944321,Cr2F5
mp-2216,-0.079252869,Ce2Co17
mp-754177,-3.654972224,CaGd2O4
mp-7386,-1.993692996,NaAgF4
mp-18556,-1.132072529,Rb2Cd3S4
mp-781710,-1.967179069,NbNO
mp-556198,-2.994946322,Na2Si3O7
mp-770737,-2.200344874,Ga2WO6
mp-978088,0.016030874,PrLu3
mp-21897,-0.491769544,YbIn4Pt
mp-28673,-1.913259518,P4SO6
mp-764086,-3.139775857,V4OF11
mp-11879,-0.467735397,BaNiSn3
mp-757663,-2.515343379,LiSn(PO3)4
mp-542302,-0.712756393,CuBi3PbS6
mp-568993,-0.801130247,Pr(NiAs)2
mp-685609,-0.593307308,Cs10(Mo2N5)3
mp-15958,-1.558231556,Nb3VS6
mp-866209,-0.37587206,Pm2SiNi
mp-772584,-2.930094429,Ti5V(PO4)6
mp-560802,-2.2062759,Te7(OF5)6
mp-1013796,-1.557457864,Li3Ni2(GeO4)3
mp-13532,-0.359472304,La2ZnNi2
mp-1784,-2.857053516,CsF
mp-697367,-2.169202268,NaP(HO2)2
mp-676261,-3.516230623,Y3NbO7
mp-778010,-3.21936186,LaTa2NO5
mp-760205,-2.807039426,Ba16S16O59
mp-695476,-3.459156851,NaSr8LaTi10O30
mp-775214,-1.922743155,LiVCuO4
mp-569411,-0.884475824,La3ScBi5
mp-24724,-0.784739189,TbH2
mp-676751,-0.99174947,Cr5AgS8
mp-773831,-0.600042431,Sn2N2O
mp-6798,-2.708285121,Ba2NaReO6
mp-2167,-0.327673833,DyAg
mp-21111,-1.051769164,NdSnPt
mp-1009652,1.088918261,RhC
mp-10179,-0.5792147,LiMgSbPd
mp-555255,-2.041282301,SbSNF5
mp-1013704,-0.449559992,Ca3BiSb
mp-978287,0.313293488,Mg3Mo
mp-571210,-1.058196785,YGaI
mp-30857,-0.486817627,Zn12Pt7
mp-705013,-1.700559683,CrBi8O15
mp-755488,-2.766789799,SrTaNO2
mp-559670,-3.402633127,KBaYSi2O7
mp-766230,-1.835829149,Rb2NaZn2H5(C2O7)2
mp-758942,-1.792759721,NaYH8(CO3)4
mp-760811,-2.325173117,Li5Cu3F14
mp-541883,-0.434767306,Tb3Ni13B2
mp-631505,0.743689477,BeCuBr
mp-642729,-1.827764352,LaH3(CO2)3
mp-14058,-2.827270117,KMg(PO3)3
mp-621176,-0.752013513,YInAu
mp-560748,-1.757458189,SbCl3F2
mp-777666,-2.468517057,Li2V3CrO8
mp-31273,-2.025592717,La2CuS4
mp-11022,-2.643627432,ScAgO2
mp-761024,-1.446565174,Na2Cd2O3
mp-1239,-0.340250522,Sb3Ir
mp-764005,-2.622224025,Li4TiV3O8
mp-684668,0.069522583,CaC2
mp-770346,-2.520431795,Li2VBO4
mp-771750,-1.560021157,Sr(IO3)2
mp-228,-0.395803507,Te2Rh
mp-11334,0.090156065,W
mp-999189,0.046220335,Fe3Ni
mp-6455,-2.652761276,NaNd(SO4)2
mp-757838,-2.491883575,LiSn(PO3)3
mp-985702,0.088827096,AgPb3
mp-510374,-1.536771908,GdAs
mp-27623,-1.448258613,Na6PbO4
mp-555425,-1.522932602,K2Th(CuS2)2
mp-982373,-0.031901567,Pm3Zn
mp-30969,-0.196690058,Ho12Co7
mp-1018073,-0.62955706,HoGa
mp-22620,-1.821261146,CeZnSbO
mp-20290,-0.398649467,TbCuPb
mp-8276,-0.688500649,Sr(ZnP)2
mp-571440,-1.265348113,K2CuBr3
mp-972752,0.560512453,Si3As
mp-510547,-1.119351762,Cu2H3ClO3
mp-19499,-2.617042688,KY(MoO4)2
mp-13399,-0.644013058,Lu(NiGe)2
mp-4633,-0.840757624,Yb(SiPd)2
mp-5363,-1.0756842,Hg2TeO5
mp-981209,-0.080764053,Ti3Ni
mp-768987,-1.945809373,Li8BiO6
mp-1146,-2.43344718,ThS2
mp-1264,-0.124450466,CdAu3
mp-770977,-3.527308058,Ca2CeO4
mp-20051,-0.768140705,CeBPt4
mp-978920,-3.3116283,Tb2Be2O5
mp-867112,-0.977969543,AcInTe2
mp-558116,-2.968038022,KMnF4
mp-642661,-2.142445185,BaH2Cl2O
mp-977580,-0.282845005,MgSc2Al
mp-1058,-1.390838522,PdF2
mp-971633,-1.54715057,NaFeO2
mp-770349,-2.402203432,LiVSiCO7
mp-769650,-2.793446065,Zr2Bi2O7
mp-775012,-2.358300932,Li3Co2(PO4)3
mp-19714,-0.697838302,GdGeRu
mp-28769,-0.605648934,K(SnSe2)2
mp-554778,-3.336968626,NaY(SiO3)2
mp-6788,-2.852582931,La3Ga5SnO14
mp-548469,-2.124086017,BaZnSO
mp-999306,-0.791931102,PrAu
mp-974376,-0.023418463,PtRh3
mp-625801,-1.503209286,Sr(H8O5)2
mp-623028,-1.378039507,Cs2NbAgS4
mp-11296,-0.298567805,ErCd2
mp-972526,-0.693767449,SmSnAu2
mp-28687,-0.36471463,U2Cu4As5
mp-570081,-0.155390062,CuI
mp-22688,-1.097342467,CuSeO3
mp-830,-0.660665461,GaN
mp-20546,-2.441074594,Ba2In2O5
mp-22926,-1.048286096,LaBi
mp-780530,-2.330657403,Na2MnPCO7
mp-16053,-2.257760402,CuSiO3
mp-1009459,0.459519511,NbC
mp-20061,-0.353424716,GePt2
mp-555150,-3.024622064,KTa(BO3)2
mp-21366,-0.593449988,Yb(GeRu)2
mp-626291,-1.463309288,Ca(H8O5)2
mp-27474,-1.441136415,PaBr4
mp-981458,0.69091303,YbTa
mp-541375,-0.755153977,CdH4Br3N
mp-1018144,-0.683219553,LaH3
mp-972916,-0.089491562,MgCu
mp-972626,-0.634600906,SmGaAu2
mp-767624,-2.590642057,Li9V5(SiO8)2
mp-840,-0.701612847,SmRh2
mp-754335,-1.765538191,Ga3NO3
mp-540179,-2.58159374,Li2Cr3(P2O7)2
mp-755492,-2.248769851,NaCuP2O7
mp-10334,-0.481019592,Pr(CdP)3
mp-774803,-2.508414227,TiSb3(PO4)6
mp-567339,-0.064512952,PrOs2
mp-29424,-1.136504712,Sr4As3
mp-22095,-0.586097617,Ga2Pt
mp-758428,-3.344281682,Ti3NbO8
mp-24796,-0.537069424,Rb3B12H12Br
mp-850915,-2.460256975,LiFe2O2F3
mp-28911,-0.399052729,BaReH9
mp-560023,-2.582141888,NiSnF6
mp-1008809,0.666488388,PtN2
mp-29113,-0.431922338,Ce3(Al2Si3)2
mp-971996,-3.081585542,SrHoO3
mp-14698,-0.11758699,Ho2Fe14B
mp-704387,-1.927810915,NaFe7(PO4)6
mp-560530,-2.486638369,Nb2Cd2O7
mp-973881,0.020963716,PmDy3
mp-639496,-0.529038623,EuIn2Au
mp-12704,-0.897675232,TbGaPd
mp-21338,-1.152065069,U(Mo3S4)2
mp-3704,-0.732648945,Cs2Mn3Se4
mp-862744,-0.504534442,Pm2ZnIr
mp-30880,-0.235544351,Tb2Zn17
mp-2515,-0.258203875,CrPt3
mp-19311,-2.140313548,V2CoO6
mp-600014,-3.275954449,SiO2
mp-15840,-3.137046437,BaBPO5
mp-974672,0.659671052,Rb3Er
mp-30748,-0.518880404,Zr3Ir
mp-11176,-0.870717039,Ca3(SiIr)4
mp-677406,-0.993979682,CuH12N2(Cl2O)2
mp-4985,-0.627138482,Dy(MnSi)2
mp-862840,-0.467796209,Pr11In9Ni4
mp-1020124,-3.246180012,MgSiO3
mp-867148,-0.7342957,LiHfRh2
mp-605839,-0.499095375,Li2B2Rh3
mp-22637,-1.024830413,HfNbP
mp-18059,-0.692470005,ZrMnSi2
mp-778612,-1.351752416,Na3CuO2
mp-556965,-2.024800395,NpAgSeO5
mp-974313,0.098310399,NaMg3
mp-29807,-1.083895976,Hf27P16
mp-7693,-4.451874308,BaTm2F8
mp-571240,-2.317546421,KLa5(CCl5)2
mp-14630,-3.72301476,Y3Si3O10F
mp-13511,-0.764404821,Tm4In(NiGe2)2
mp-29538,-2.79818001,BaGdCl5
mp-989553,-0.103024637,Cs2TlGaH6
mp-865652,-0.518845743,TiMn2Si
mp-984767,-0.450662075,DyHoIn2
mp-867203,-0.96369701,Sr2CdAs2
mp-769122,-2.310076676,Li4Sb2H6O3F10
mp-733853,-1.375859807,K2HI2ClO6
mp-581786,0.004123833,Cu3Sn
mp-850049,-0.770430902,CoS2
mp-755591,-2.979737113,Dy2TeO6
mp-1013797,-2.110154348,Na3Ge3(MoO6)2
mp-715598,-2.47629925,V7O13
mp-28855,-2.318989549,Cd4OF6
mp-13852,-0.258904522,Ge3N4
mp-693,-0.208633751,Pr3Tl
mp-560333,-0.87064436,Ta2Te4Br10O
mp-30645,-0.528055559,HoGa4Ni
mp-775796,-3.076613129,Li2Ti3NbO8
mp-32868,-0.228405929,Ag2S
mp-695894,-1.450644244,NdH12(NO5)3
mp-569967,-2.537765477,K2PrCl5
mp-703342,-2.574190148,Ti2P2H4O11
mp-542079,-0.930294709,K3La(PSe4)2
mp-581517,-0.522756804,K2In(PSe4)2
mp-557950,-2.214429115,TiZn(BiO3)2
mp-780869,-3.353329773,Tm2WO6
mp-24433,-1.599729507,KHSeO3
mp-775916,-2.279546788,LiSnPCO7
mp-11852,-0.207561341,NdCu2
mp-554057,-2.670804836,KPr(SO4)2
mp-4299,-0.818071384,HoInPd
mp-3701,-0.422295744,Sc(Al2Fe)4
mp-21301,-0.442746537,ScInNi2
mp-997006,-0.690537311,AgPtO2
mp-31091,-0.844619667,Lu2Pd2Pb
mp-651008,-2.750939916,YbCo(BO2)5
mp-17895,-3.253081927,K3BeF5
mp-559014,-3.497500864,Nd4GeO8
mp-1008506,-0.447467683,BaGaSiH
mp-766341,-1.896338328,NaSb5O13
mp-1136,-0.404564841,Na3As
mp-761128,-2.811345129,BaNb5O8
mp-6687,-3.121118523,Ba2HoSbO6
mp-7762,-1.956323145,CdGe2O5
mp-757145,-2.467489361,SmH2ClO2
mp-781082,-2.591847861,SrCrO3
mp-764959,-2.817303308,VF5
mp-9308,-3.542835985,Li4ZrF8
mp-28467,-0.471348122,Cs2Cu5Se4
mp-770376,-2.477261771,Mn2P4O13
mp-19001,-2.499397042,SrMnO3
mp-241,-2.502639422,CdF2
mp-676424,-2.428126943,Sm(GdS2)2
mp-989193,-1.655350192,SnBrF
mp-977438,-0.544975368,MgInRh2
mp-31413,-0.830402103,TbSnAu
mp-981381,-0.378869188,Tm2TlHg
mp-9278,-0.314086243,U2Si4W3
mp-773430,-2.599587281,NbV2O7
mp-779650,-1.369632539,Na5CuO4
mp-32715,-0.674917426,B36O5
mp-977442,-0.432635466,Yb2ZnGa
mp-20944,-2.488639944,Sr2PbO4
mp-570564,-1.264185945,Ce3CuGeSe7
mp-1704,-0.266257418,Tb2Tl
mp-767248,-2.575690014,LiFeSiO4
mp-558273,-3.408767193,Ca3SiO5
mp-559096,-1.744547979,Rb2TeH6SO10
mp-30463,-0.259998315,BiPd3
mp-984723,-3.639811173,DyAlO3
mp-541407,-0.96649004,RbCuSnS3
mp-976039,-0.191087649,LuBe13
mp-570152,-0.369063952,Co2(SnSe)3
mp-973685,0.013739939,NdHo3
mp-22463,-0.337706608,TiInNi2
mp-760323,-3.943311577,Ce5O9
mp-41219,-2.630922931,BaLiPrTeO6
mp-640051,-0.290538931,Pu2Ni2Sn
mp-11628,-0.525069672,Tb2Al6Si4Pt
mp-23050,-3.480741309,GdClO
mp-569638,-0.095314788,Dy2Co17
mp-706676,-1.712413959,KPH3NO3
mp-569739,-0.395094915,ErAl9(Fe2Si3)2
mp-4474,-1.327735246,V4GaS8
mp-581413,-3.129489514,Ta2Hg2F11
mp-30058,-1.731637508,TlSbO3
mp-755461,-3.863309511,Dy3TaO7
mp-558408,-0.607624833,Nb4Te9I4O
mp-15077,-0.355391347,Ag7AsS6
mp-984696,-0.48390054,Hf(TlTe)4
mp-1017507,-0.902993333,TmAu
mp-18792,-2.439394599,Ca3(CoO3)2
mp-31770,-1.801159,Fe3O4
mp-774353,-2.072500802,Li3Ti(NiO3)2
mp-21851,-0.534118006,MnSiIr
mp-69,0,Sm
mp-19028,-2.536796114,Na3Fe(PO4)2
mp-758433,0.083472317,AgHg
mp-531975,-0.792569886,Zr3(Bi5Br9)2
mp-779344,-2.584392295,Mn12O7F17
mp-8352,-3.277086379,SiO2