id,band_gap,pretty_formula
mp-569677,1.7944,Sr2IN
mp-781596,1.7251,LiFeOF2
mp-12881,3.2972,Ba3NbGa3(SiO7)2
mp-776104,0.8929,K2O
mp-9703,0.7546,K2LiGaAs2
mp-4975,4.0807,RbZnF3
mp-630866,1.0678,Fe3Pb4ClO8
mp-555884,0.3935,ErCuTe2ClO6
mp-1019561,3.555,Ca2GeO4
mp-722280,0.295,LiCuH4Cl3O2
mp-5515,0.6562,Li7MnN4
mp-773126,3.979,Sm2(WO4)3
mp-556551,2.9928,GdSeClO3
mp-686541,2.3774,Al2Cd(Si5O12)2
mp-768556,3.5102,Na3BSbPO7
mp-1020108,2.8474,LiCaMgSiN3
mp-36600,0.3993,Ag3SBr
mp-776097,4.1383,HfO2
mp-763454,1.308,LiMn2OF3
mp-554346,4.173,KSr4(BO3)3
mp-561125,4.9637,Ba5P3BrO12
mp-18132,1.7397,K4SnSe4
mp-24747,3.1082,Na3H6Rh
mp-6822,4.1726,NaGa(SiO3)2
mp-763992,0.8309,V6O11F
mp-625468,5.0247,Lu(HO)3
mp-504535,1.7764,InHO2
mp-669384,4.2881,Cs2NaCo(CN)6
mp-778793,0.9779,Li4Fe3(SiO4)3
mp-783904,4.6101,NiH20S2(NO7)2
mp-19471,1.9979,Ba5Sm8Mn4O21
mp-557163,5.1347,TaPbF7
mp-674363,3.9398,Zr3Sc4O12
mp-23519,2.8749,Ga4Bi2O9
mp-746371,2.0013,KCo2As2HO8
mp-9349,6.3814,KRb2ScF6
mp-556767,2.5826,ClF3
mp-767204,2.0916,Li2V(Si2O5)3
mp-642999,3.9711,TmH3(CO2)3
mp-28216,3.7403,Lu6Ge4O17
mp-756746,1.5984,Rb4PbO4
mp-5626,1.7117,K3SbTe3
mp-28971,4.0395,Rb2Si2O5
mp-39215,4.0713,Zn3GaB6PO12
mp-5367,0.5166,K5SnSb3
mp-776616,2.2743,LiV2F7
mp-996983,0.6128,AgAuO2
mp-667383,5.5139,SiO2
mp-1019579,2.403,CaMg3SiN4
mp-707276,4.2592,TeH9SN2O5F3
mp-8333,5.1001,RbNaSnF6
mp-2651,7.5969,PrF3
mp-703350,3.0791,La2(GeO3)3
mp-32525,2.63,Li2V(PO4)2
mp-23291,3.7951,PbCl2
mp-7079,4.5596,CaZrSi2O7
mp-6574,4.0014,Er2C(NO)2
mp-698655,3.6168,KMgIn(MoO4)3
mp-775170,2.0451,Li2AlCr2SbO8
mp-675295,1.2452,InPF3
mp-755206,1.9871,Ca2Ti6N2O11
mp-677733,2.8999,K2TiAl(PO4)3
mp-769618,2.2332,Ni4P2O9
mp-771121,4.0802,La2HfO5
mp-23427,2.4281,Ti3(BiO3)4
mp-18825,0.2677,YCrO4
mp-7323,5.9598,RbBe2BO3F2
mp-554383,4.4475,Na2Si2O5
mp-556469,5.6962,SiO2
mp-541062,0.3329,Ca3GaAs3
mp-28595,2.0161,KNaSe
mp-695929,4.9166,Cs3B6H12S4Br
mp-771955,2.9573,Sr3LaBr9
mp-7148,2.0809,K2SrTa2O7
mp-30001,1.6979,Ba16Nb5N19
mp-8965,1.4047,K2Sn2S5
mp-771095,0.8473,Mn3Cr3(SnO8)2
mp-758233,2.086,Nb9PO25
mp-559319,3.6869,Zn2P2O7
mp-707342,0.5587,ZnH18Ru2Br7N6
mp-33322,1.5785,LiHoSe2
mp-556328,2.0408,AsS
mp-2961,1.3725,MgSiP2
mp-560226,4.7958,NaNd(Si3O7)2
mp-555184,3.2084,SmTiClO3
mp-634466,3.481,HgH12(ClO7)2
mp-560791,3.3618,CsNaTiO3
mp-13666,1.4338,Ti(PS3)2
mp-763787,1.4149,Fe8O9
mp-773074,4.3898,LiZr2(PO4)3
mp-28456,1.5197,Sn15Os3O14
mp-675068,2.3234,Nd2Zr8O19
mp-757981,2.4186,Na2SnGe2(HO4)2
mp-705301,1.2275,LiCoP2O7
mp-770743,3.8274,Li2Hf2O5
mp-3404,5.0264,RbSO3
mp-17095,1.1163,CsCuSe4
mp-561005,3.5011,SrBi6(PO5)4
mp-686004,3.9935,Li3ScCl6
mp-554759,3.396,SrBNO
mp-771335,3.4916,Na3SnPCO7
mp-7094,2.3008,ReAgO4
mp-698353,3.0464,KBiH10C4O13
mp-29605,3.3455,SrPr2O4
mp-5985,4.0139,HoTaO4
mp-780471,1.1745,LiV2P4(HO8)2
mp-510032,0.8456,Ge3Os2
mp-29218,2.9644,Ge3Bi2O9
mp-22569,2.7239,InPO4
mp-977360,7.3459,AcF3
mp-558748,3.4806,Sc2O3
mp-570258,2.5256,Ca3(AlN2)2
mp-20352,0.8801,Ba3In2O6
mp-27367,4.0833,SeOF2
mp-985626,1.1833,Na3Mn2SbO6
mp-763256,1.5811,LiCoSiO4
mp-756758,0.5561,CuH4(IO4)2
mp-6267,4.1762,LaSiBO5
mp-18996,2.0141,TlV3O8
mp-22870,1.3112,InBr
mp-27823,4.8762,SmClO
mp-561065,3.1269,MgTi2(PO5)2
mp-559020,4.8958,KBi(PO3)4
mp-763927,0.897,V6O7F5
mp-778223,0.4256,Li4Ti3Mn2Cr3O16
mp-570857,4.0292,Y(AlCl4)3
mp-8231,0.7936,ZrSO
mp-568986,1.42,KAuCl4
mp-558455,3.826,Na4Li5(BO3)3
mp-23534,1.5182,KSn2I5
mp-18130,4.673,Nd2Si2O7
mp-776896,2.4469,Nb2O5
mp-686467,1.8643,Sr14La6Mg3Ti17O60
mp-849760,3.1965,Al11AgO17
mp-555396,5.0411,Mg2PClO4
mp-540569,0.3055,CsCr5S8
mp-556985,5.6105,SiO2
mp-780086,2.6208,Li8Mn(O2F)2
mp-569378,1.425,Rb3Ta2AgSe12
mp-23776,5.341,BeH8(ClO2)2
mp-766176,3.3634,LiSiBiO4
mp-721924,1.3996,CaFe3Si2HO9
mp-559144,2.2928,GePb3O5
mp-772721,3.1078,LiSi6Bi9O26
mp-771909,0.5485,Li4Mn2P4H3O16
mp-29827,0.6505,Rb4Hg5Te13
mp-721239,1.3131,Li10Ge(PSe6)2
mp-697796,2.3402,Li2Cr5(PO4)4
mp-29009,4.5268,Li2MgBr4
mp-571006,0.2022,YbP5
mp-675069,3.0231,LiNbO3
mp-770502,1.6342,Li6Cr3Co(PO4)6
mp-6055,2.0006,Sm2SiTeO4
mp-770562,2.9962,Li6AlCrO6
mp-752432,2.3862,Gd3NbO7
mp-7908,1.6187,Al2ZnTe4
mp-4226,0.658,LiCrS2
mp-755717,4.5947,SmHoO3
mp-27559,1.3841,Na14Cd2O9
mp-29365,1.3634,Li5BiO5
mp-1958,1.7736,SrTe
mp-773191,0.5411,Li6Cr3Sb3O16
mp-989407,1.5297,YWN3
mp-31004,2.6806,Sn(SO2)2
mp-560064,5.7315,SiO2
mp-559627,4.6984,LiP3PbO9
mp-1004532,4.513,CCl4
mp-777891,2.8958,LiFeF4
mp-555495,3.1814,K3Y(BO3)2
mp-998599,4.4047,KCaBr3
mp-18962,2.2575,Sr2CaMoO6
mp-29085,5.3638,Sr5Zr3F22
mp-510646,2.0744,TlPPbS4
mp-33872,5.2608,Na7Zr6F31
mp-769278,0.4284,LiCuPO4
mp-19406,1.9671,La2MgMnO6
mp-765840,0.6187,Li4V3Co(PO4)4
mp-765076,1.2335,LiMnOF2
mp-31723,2.7694,Li3Cr(PO4)2
mp-27390,5.9631,K5ThF9
mp-24610,5.5778,LiP(HO2)2
mp-6459,5.0105,CaMg(CO3)2
mp-27678,0.7778,Y2Cl3
mp-565757,3.1125,Gd2WO6
mp-8763,2.6975,Tm2S2O
mp-11790,0.8799,LaCuSe2
mp-753063,0.6733,Li3CuF6
mp-772098,4.9271,Sm(ClO4)3
mp-30157,3.252,Dy3S2Cl5
mp-24074,3.6967,Dy(HO)3
mp-540496,0.2111,Cu(PO3)3
mp-1013850,1.4823,LiV2P2O9
mp-504482,2.3561,AlInS3
mp-6500,6.5983,KRb2ScF6
mp-570492,2.4254,CdI2
mp-763567,2.4054,LiV(CO3)2
mp-775268,2.96,Li8Mn7Fe(BO3)8
mp-541916,1.3568,Rb2Ag(AsSe2)3
mp-557397,3.2754,K2MnF6
mp-989633,2.3776,LaWN3
mp-28978,1.6325,Ba2S3
mp-23383,2.0792,Rb2TeBr6
mp-755001,2.4523,Er2TeO6
mp-777466,3.7141,Li2FeF4
mp-14778,2.1296,Ca3Zn3(TeO6)2
mp-766855,3.5161,BaH9IO5
mp-568619,1.7708,SiC
mp-744577,2.4172,FeP2HO7
mp-646007,0.7338,Cs2Tb6Te7N2
mp-677222,2.4077,Ba3La3Ti4NbO18
mp-570738,2.3838,GaI2
mp-644003,2.8682,BaCo2P2H2O9
mp-13643,3.7279,Er2Ge2O7
mp-568890,0.3988,Tl2CdGeTe4
mp-697758,2.5246,LiFeP2O7
mp-8399,3.3082,CsCdF3
mp-770660,1.3461,Li12CrGa11O24
mp-766603,0.8522,Li5Fe8(BO3)8
mp-753153,4.4556,Dy2CO5
mp-560927,4.3605,Y4Al2O9
mp-761118,1.5249,Ti7Sn3O20
mp-7020,4.1082,LiYO2
mp-571448,0.3591,Cs2PuCl6
mp-672200,4.1966,RbC2N3
mp-9824,0.8479,Ho2Se3
mp-560340,1.1396,La2Pd2O5
mp-555941,5.6708,AlPO4
mp-39886,2.1621,BaCaLaBiO6
mp-774754,3.1304,KRe4O8F13
mp-20782,1.3847,LiInTe2
mp-18757,3.3394,Sr2CdWO6
mp-35659,1.3237,HgPbF6
mp-776404,3.4629,ZrO2
mp-781976,0.4596,Li2CuF5
mp-767633,1.8429,Li4Ti9O20
mp-1016879,0.6724,CdSiO3
mp-8922,1.4161,Cd(SbO3)2
mp-561141,5.2001,KYP2O7
mp-540438,3.9899,LiMn(PO3)3
mp-638078,1.3717,CsTbZnTe3
mp-775178,2.0694,LiFe2OF3
mp-865466,4.6808,TiH8(NF3)2
mp-767601,0.8883,Li6Mn2O5F2
mp-6775,4.5627,Na3Sr(BO2)5
mp-540945,3.2395,Na2Li3GaO4
mp-560571,2.4278,LaPS4
mp-9665,1.3259,K3BAs2
mp-541995,4.5981,LaSiO3F
mp-2341,1.218,Li3N
mp-10577,1.1591,Sr5NbN5
mp-16060,1.1321,AgAuF4
mp-775961,1.0002,Li4MnSn(WO6)2
mp-3082,5.6745,CaSO4
mp-19131,2.5693,LiMnBO3
mp-720554,5.1041,LiPH4NO3F
mp-625890,1.6204,H5IO6
mp-9262,2.7869,Cs2PtF6
mp-770289,3.9972,Ho2Zr2O7
mp-5611,2.1172,BaUO4
mp-38222,5.3069,NaCN
mp-17834,2.3068,La2SiSeO4
mp-31243,0.3723,BaAs2
mp-4223,4.1727,Na3PO4
mp-776225,1.9204,Hf2N2O
mp-557668,1.8643,MnPtF6
mp-18959,3.9215,Y2Be2Fe(SiO5)2
mp-772118,0.4258,NaCuCSO7
mp-752411,0.9137,Tm2Pb2O7
mp-754610,2.9311,Sr3CaI8
mp-656887,0.3954,Ni3O4
mp-684990,3.1115,Al2O3
mp-570623,0.7589,Pr4Te3N2
mp-583052,1.0381,LuCuPbSe3
mp-989573,0.99,Rb2BrCl6F
mp-12908,0.6898,ScAgSe2
mp-775011,1.801,Li2NbFe3O8
mp-16990,3.188,Ba10P6SO24
mp-767678,0.8843,Li8Cr3TeO12
mp-780169,1.1712,Hf2N2O
mp-625657,2.1767,TeHO3
mp-555512,4.244,RbCO2
mp-756581,2.3176,LiNdTi2O6
mp-27859,0.9324,SbI5F6
mp-558798,3.7306,BiPO4
mp-675033,0.694,Ga12Ag2Te19
mp-35785,1.1108,Y2CdS4
mp-746071,3.4089,KFePO4
mp-686765,1.3454,YTi2CdO6F
mp-569970,1.9289,ZrHg3(SeBr3)2
mp-997055,0.6384,CuBiO2
mp-626794,1.8011,Ni(HO)2
mp-11321,3.504,Y3TaO7
mp-23228,1.7747,PCl5
mp-505464,0.4848,Cs2Te13
mp-768078,1.3902,Cr4Si4O13
mp-755804,2.8034,Lu6TeO12
mp-707866,3.6276,SrZnH6O5
mp-744580,2.4551,ErCrHO5
mp-12641,2.8567,Ba2HoNbO6
mp-768353,3.1725,YTmO3
mp-756451,2.8881,CaPbI4
mp-625397,3.7396,Nd(HO)3
mp-12023,0.6646,MnCu2SiS4
mp-9911,2.1341,K3SbS4
mp-697926,3.4905,LiCd2HSe2O7
mp-28809,1.6442,TlBS3
mp-570339,2.1724,Tl4CdI6
mp-755375,0.8772,Lu2Pb2O7
mp-19025,0,LaMnO3
mp-774389,0.3188,Li4MnV3(P2O7)4
mp-14552,2.244,Ba2SrUO6
mp-542951,5.2906,Cs2NaHoCl6
mp-769398,1.6774,Na3IO
mp-554084,3.4171,BaBi6(PO5)4
mp-769129,3.3378,Li3SbN3(O3F)3
mp-764348,2.9041,LiFeSiO4
mp-568001,0.838,AlHg2SbCl4
mp-24037,2.8901,CoH9(CN2)3
mp-558534,5.3922,Tm3B5O12
mp-690653,4.8807,NaH3CN4O
mp-21266,4.2808,BPPbO5
mp-775326,2.7066,Li2Ti3NiO8
mp-765686,2.2384,Li2Co4OF8
mp-772811,2.9621,Na2Ge2O5
mp-676561,0.3466,Ag3SI
mp-680198,1.3128,Cs4Th2P5Se17
mp-638686,2.0089,AgNO3
mp-6449,0.9803,CdCu2SiS4
mp-1019105,0.3855,KMgBi
mp-24397,5.2544,MgH8SO8
mp-754712,2.943,NClO3
mp-766600,2.372,Li4TiS4
mp-772610,3.0085,Ho2(SeO4)3
mp-676049,7.3127,KBF4
mp-31287,1.3458,Tl3PdBr5
mp-581644,4.569,Y2Si2O7
mp-780978,1.2241,Fe4O3F5
mp-698074,5.7341,Ca2H2S2O9
mp-6765,3.9718,Li3AlGeO5
mp-777785,2.9978,LiFeF4
mp-867228,0.7643,K2Mn(PSe3)2
mp-3790,0.2602,SrNb8O14
mp-14676,3.174,NdTa7O19
mp-27871,1.2476,RhBr3
mp-22304,0.9545,Cd(InSe2)2
mp-24479,4.0346,SrH2Br2O7
mp-770563,2.8524,Mn3(PO4)2
mp-22925,1.3678,AgI
mp-36791,1.8683,LiNdS2
mp-571637,1.3224,K2Cd2Te3
mp-782665,2.4504,LiVF3
mp-566368,2.8043,K2Te(WO4)3
mp-765692,2.2746,LiCo2OF3
mp-562726,2.4451,CsGaS3
mp-23734,5.2566,MgP(HO)7
mp-3031,4.7566,BaSi2O5
mp-3491,2.4338,NbSbO4
mp-27787,2.2697,NbPCl10
mp-763440,2.6846,Li8Mn(O2F)2
mp-23417,1.4413,InSn2I5
mp-557393,3.5704,K3AgC4(SN)4
mp-542944,0.6475,Cs2CuH12(SO7)2
mp-7394,0.61,BaAg2GeS4
mp-27907,0.8506,Sb6Pb4S13
mp-985293,5.8007,Al(HO)3
mp-776965,4.0902,Na3Sb(PO4)2
mp-5468,5.8901,Na3AlF6
mp-27307,6.2518,Na2ZrF6
mp-4126,0.4513,KUO3
mp-643759,5.3041,GaH3NF3
mp-578931,0.2421,Cu2SeO4
mp-771063,3.0471,Li4Fe3Ni(PO4)4
mp-764896,1.1593,Li7Fe8(BO3)8
mp-771166,3.2302,Na2SbAsCO7
mp-764949,0.2602,MnF3
mp-22737,1.6195,Sb8(PbS5)3
mp-19330,3.5047,CaMoO4
mp-720847,5.8178,BH2NCl2
mp-606644,0.9928,CuP10
mp-561237,5.0401,LiCaBO3
mp-28250,1.7798,Li2MnBr4
mp-757176,6.4947,BaYF5
mp-753444,2.2354,Li3BiS3
mp-1020018,6.1082,Li5B(SO4)4
mp-20098,1.2232,Ba2PbO4
mp-505187,2.1249,K6Pb2O5
mp-626819,3.8298,ReH3O5
mp-604315,4.2519,Zn(BH4)2
mp-17315,4.263,Zr3Tl2OF12
mp-24084,3.4696,KH
mp-561352,3.3673,BaNa2Ti2(Si2O7)2
mp-722502,1.9668,Li3P11(H3N)17
mp-864942,2.6427,Mg3TcH7
mp-557746,4.0927,Zn2SeCl2O3
mp-768358,2.1968,ScInO3
mp-4770,4.984,Na2SO4
mp-554722,3.682,Y3GaO6
mp-560173,4.5482,KAlSiO4
mp-771342,2.9668,Gd2P4O13
mp-23089,2.4926,SrTa2Bi2O9
mp-768734,3.5508,Sr2CaI6
mp-557040,5.6677,Lu(PO3)3
mp-554363,2.968,Pr2Ti3(ClO4)2
mp-557272,1.0469,AlS2(NCl2)2
mp-555356,2.3013,Ba13Dy8Zn4Pt4O37
mp-757911,4.4096,MgAl10O16
mp-17404,5.1098,Y2Si2O7
mp-760226,0.6046,Nb3O2F5
mp-679928,3.4083,Rb3Pr2(NO3)9
mp-622203,3.625,BaMnGaF7
mp-625055,4.6632,AlHO2
mp-29312,1.7858,InI2
mp-555080,5.0822,PH7CN3O3F
mp-763249,0.7463,Co3OF5
mp-772267,3.1117,Li2AlFeO4
mp-989539,0.7863,Rb2AlTlH6
mp-9203,2.7145,Al6Cd4SO12
mp-568350,4.5227,Rb2ZnCl4
mp-568289,2.3959,CdI2
mp-570589,1.4863,SeBr
mp-29612,1.2759,RbEu2I5
mp-5746,2.3736,MgTe2O5
mp-15416,0.8526,Rb2GaAs2
mp-758933,2.3516,B8O
mp-754960,2.2017,SmIO
mp-28038,0.5941,NbTeBr3
mp-761252,5.7124,RbPH3O4F
mp-761449,0.6236,Li4Mn3Cr3(FeO8)2
mp-558752,5.3971,Rb2Ca2(SO4)3
mp-761156,1.8941,Li3La5Ti6Nb2O26
mp-7472,1.4666,RbAuO2
mp-570957,1.258,CsSiTe3
mp-561075,1.9178,Na2CdSnS4
mp-18964,3.0493,K3NaCr2O8
mp-530852,2.3731,Mg2SiO4
mp-556745,2.8814,TlCO2
mp-19101,2.264,BaEr2NiO5
mp-698021,2.1018,CaH12(IO7)2
mp-6557,4.3991,Cs2PO3F
mp-559904,4.4998,NaLi3SiO4
mp-559562,2.0142,AgTeNO5
mp-29750,4.0445,CsMgBr3
mp-769535,2.0662,V3(PO4)2
mp-774539,2.6046,LiTi2(PO4)3
mp-867169,0.2817,Sr2SnHg
mp-771235,3.3679,CsLa3O5
mp-557529,4.5631,Na5P3O10
mp-752449,4.4817,La2B4O9
mp-961774,0.4228,BaNaSb
mp-555178,5.3515,Rb5H5(OF3)2
mp-4541,0.4944,NaCuO2
mp-775754,0.4496,Li4Nb3V2Co3O16
mp-1001019,1.0918,Mg(ScSe2)2
mp-626201,5.3999,H5ClO6
mp-31314,1.8994,K2PSe3
mp-28455,1.4841,Hg2P2O7
mp-775735,0.927,Sr2CoCO3F5
mp-771956,4.0229,Tb2Zr2O7
mp-11661,0.6808,Zr3N4
mp-3924,1.5795,LiNbO2
mp-777677,3.0836,LiFeF4
mp-557780,4.8216,CsSi2HO5
mp-669309,0.2174,CsY10(C2I9)2
mp-772579,3.4936,La2WO6
mp-14388,4.6662,Ho3Al5O12
mp-605347,2.0783,HgTe(H2O3)2
mp-23535,3.6745,K2ZnBr4
mp-554599,4.2706,SnS2(O3F)2
mp-16597,3.7375,K3ErSi2O7
mp-10798,2.2443,HgSeO3
mp-1519,1.5648,CaTe
mp-768221,3.0887,YBiO3
mp-755083,4.5016,BaYCl5
mp-560647,3.6002,Ca2GeO4
mp-627380,3.1387,Mn(ReO4)2
mp-8224,5.377,CaSnF6
mp-767711,0,Li2Mn2Si4O11
mp-754531,4.3701,Al2O3
mp-765656,0.2214,Na5V7O14
mp-1001080,5.8876,H2CO3
mp-29614,1.2522,KEu2I5
mp-770886,1.9602,Li3FeO3
mp-760052,1.8717,Hf2N2O
mp-990440,4.3594,Na2ZrO3
mp-14134,3.3181,Lu3Ga5O12
mp-560809,5.4481,SiO2
mp-863367,0.4906,KBiO3
mp-23959,5.4325,KP(HO2)2
mp-28471,2.291,Li3AsS3
mp-7482,0.6524,RbHgF3
mp-12450,0.413,LiNd2OsO6
mp-755370,1.2927,BaNb3NO7
mp-12317,3.2178,SrCN2
mp-8041,1.9684,Rb2S
mp-27488,1.2291,Ta3N5
mp-23904,4.2591,BaH4O3
mp-735808,2.3014,Na2Ca29ZrSi16(O7F2)8
mp-558360,2.253,AlAs3S5Cl4
mp-555575,3.1003,Rb2AgC3(SN)3
mp-505713,2.1716,CsTmZnSe3
mp-778815,2.9838,Li2CoP2O7
mp-851270,0.4029,Li9Mn7V12O48
mp-756509,2.6608,BaLaI5
mp-605771,3.6407,TlIn(MoO4)2
mp-541158,0.5544,Nb3SI7
mp-23036,1.7095,K2SeBr6
mp-619661,2.2335,Pb3(IO)2
mp-625677,3.9093,Y(HO)3
mp-673808,3.867,Mg2SiO4
mp-11709,5.4697,Sm(BO2)3
mp-697789,1.1187,LiCrP2O7
mp-569787,6.2431,Al(BH4)3
mp-626315,3.1055,Sr(H8O5)2
mp-33753,2.7471,TaHO3
mp-27782,3.1109,XeIF7
mp-720433,4.204,Be2As(HO)9
mp-763186,1.093,Li2Mn3SbO8
mp-1019596,1.823,CeZrO4
mp-304,0.315,Ca2Ge
mp-600038,5.4996,SiO2
mp-625113,1.5241,H8PtO6
mp-760655,3.5942,Li3Bi(PO4)2
mp-19211,3.9942,SrNi3(P2O7)2
mp-22999,0.2994,Hg3(ClO)2
mp-554949,0.695,Ba6Ru2Pt(ClO6)2
mp-9172,4.5591,Li4TiO4
mp-30161,4.3745,Si2CN4
mp-769457,0,Li4Ti4Cr(Fe2O9)2
mp-756725,3.5732,Ba2CaI6
mp-764938,1.7256,Li3Fe8(BO3)8
mp-557519,1.6869,CaCrF6
mp-19133,2.971,YVO4
mp-5927,0.2491,Cs2Mn3Te4
mp-16032,1.6735,Pr2TeO2
mp-693503,2.3535,Zn2GaP3H8(NO6)2
mp-505345,1.5098,SrV2(P2O7)2
mp-9788,3.1285,SrPS3
mp-13000,3.448,Ba2HoTaO6
mp-555937,0.5683,Ca3Cu3(AsO4)4
mp-21618,2.9857,NdAl3(PbO4)2
mp-559272,1.8305,K3Sb7(SO3)3
mp-560233,3.8991,Sr5B3BrO9
mp-560702,0.3148,BaHgRuO5
mp-605486,3.6565,ScTl(MoO4)2
mp-559030,3.4906,KB(CO2)4
mp-541628,4.6239,CsTeF5
mp-18802,2.0241,BaPr2NiO5
mp-695545,1.6706,TaTi9Al3Zn23O48
mp-771908,2.406,LiFePO4F
mp-765687,1.253,VOF
mp-779026,1.1417,Li4MnCr2Fe3(PO4)6
mp-768230,3.4736,SmTaO4
mp-580748,1.1687,Re3Se4Cl
mp-768986,1.9052,Li5BiO4
mp-32022,1.7032,LiMnP2O7
mp-558181,5.5274,NaSiBO4
mp-2168,0.3197,SnSe
mp-29019,0.6343,Rb3IO
mp-768923,3.356,Bi4(B2O5)3
mp-27353,1.8671,SbCl2F3
mp-556301,2.464,Li6CaCeO6
mp-677223,3.4732,NaCaAl3(SiO4)3
mp-558895,2.5369,Cs2KVF6
mp-625472,3.6114,Tm(HO)3
mp-764457,0.3161,Na3FeO4
mp-505436,0.574,CuP4O11
mp-551816,1.3836,YBi2IO4
mp-675645,2.0811,Tb2PbS4
mp-579637,0.8028,K2In2Sb3
mp-1016830,1.6075,MgTiO3
mp-545728,1.2339,PrBi2IO4
mp-779337,1.1398,Li5V6O5F19
mp-779588,0.6551,LiCu2PO4
mp-557146,2.5577,TiAs2O7
mp-13803,0.4563,Nb2Hg2O7
mp-4445,0.5097,Hg3AsO4
mp-18661,5.3291,KY(PO3)4
mp-557953,0.6009,Hg3TeO6
mp-673245,1.1452,CuI
mp-556996,7.2639,K2LiAlF6
mp-756526,0.2247,Bi2B2O7
mp-12177,1.6699,Te2O5
mp-541877,2.6487,TaTeCl9
mp-29397,0.3081,SiTePt
mp-1019891,4.1722,KPSO2
mp-772664,0.8249,Na2CoAsCO7
mp-3970,4.7262,K2TiF6
mp-866078,5.6533,NaNd(SO4)2
mp-770818,1.3424,Li3Cu5O4
mp-773090,1.5761,Nb6CdO16
mp-769613,1.0857,Li4Ti3Ni3(WO8)2
mp-23267,6.3325,BeCl2
mp-695996,4.5893,BaH8C6(N3O4)2
mp-505045,0.8645,Na5(InTe3)2
mp-12342,1.3651,CsNdZnTe3
mp-752423,3.2134,Na2TiO3
mp-40144,5.1773,SiNiH12(OF)6
mp-556056,1.8402,Pr10S14O
mp-554553,1.4609,Ho3CuSnS7
mp-677055,0.6572,ScCuSe2
mp-20694,1.7706,K2Pb2O3
mp-14726,3.3159,Na4TiO4
mp-557465,5.522,SiO2
mp-7262,0.2249,ZnAs2
mp-560587,2.3306,Rb2Sb8O13
mp-561433,0.4391,KPuCO5
mp-22734,2.7161,HfPbO3
mp-559617,4.4123,HfB2O5
mp-558636,4.9821,CaAl2O4
mp-989623,1.9849,SrReN3
mp-850907,0.3985,LiMn2(BO3)2
mp-15797,1.6209,LiErSe2
mp-1019560,4.7086,Ca2B2O5
mp-562473,3.1282,LiSn2(PO4)3
mp-997027,0.9664,AuO2F
mp-686232,0.5483,Na7Al11Si13(AgO12)4
mp-541766,0.5072,Rb3InP2
mp-532315,1.7864,Sr17(Ta5S21)2
mp-760134,1.8176,NbSb3O8
mp-556320,4.0526,Cs2NaFeF6
mp-867184,3.404,K2TeH6SeO10
mp-770345,2.0244,Li3V(BO3)2
mp-754833,1.0778,Hf2N2O
mp-29139,0.9033,NaAuSe2
mp-5158,2.9159,KNO3
mp-18318,4.595,Tm2Si2O7
mp-557961,2.1439,SbCNCl4O
mp-23151,4.6338,Na4BeAlSi4ClO12
mp-8278,1.1496,Ba(MgP)2
mp-31263,1.1569,In5S5Cl
mp-1008677,1.0565,TiO2
mp-555483,4.707,SiO2
mp-676110,1.8318,Tb14(PbSe8)3
mp-556023,3.1692,Nd3S2Cl5
mp-763209,1.0074,Li2VO2F
mp-962072,0.7403,KYSn
mp-569557,1.5192,Dy3CuSiSe7
mp-29832,0.2589,Sm10Se19
mp-642822,2.4765,CaC2
mp-40802,1.8713,BaSrLaBiO6
mp-30096,1.2813,Be2Te7Cl6
mp-1019779,4.9276,K2Mg2Si2O7
mp-754027,3.6126,NaSmO2
mp-695987,4.7946,MgH10CO8
mp-557108,2.983,Ba2Nb2TeO10
mp-774623,3.1861,Li4Sn(PO4)2
mp-676644,0.9623,Yb(Ga3Te5)2
mp-754769,2.2943,TiO2
mp-18888,3.5238,Sr2CdWO6
mp-764869,1.3839,Li3MnFeCo(PO4)3
mp-757343,1.6817,Ca4Bi6O13
mp-18317,0.9406,Na5SnP3
mp-721876,5.5257,AlP2H5O9
mp-18542,2.0488,Nd2SiTeO4
mp-695070,2.9215,Ca3Ga2Si(SnO6)2
mp-764428,0.5893,Li12Cr5O16
mp-758094,1.8197,Ce6Y2O15
mp-961687,0.471,ZrSnPd
mp-556974,6.466,BaB4O7
mp-772074,2.1769,Sr3LaI9
mp-556872,2.9484,RbCO2
mp-542464,3.9647,Ga2H6(SeO4)3
mp-772412,4.7722,MgSiO3
mp-571410,0.7686,CsZr6BI14
mp-554529,4.2636,Ba2TiO4
mp-677680,5.714,LiMgAl3(SO4)6
mp-706982,4.8527,H10S(NO2)2
mp-764775,1.9844,Li7VO5F
mp-753413,3.8042,Ba2B2O5
mp-541758,1.3839,Ta2Se17Br12
mp-23074,3.1226,BiOF
mp-763246,1.3881,LiCoSiO4
mp-867329,3.1218,K2ZnH4(I2O7)2
mp-5503,4.0561,ErTaO4
mp-551741,3.6522,Zn2P2O7
mp-9799,0.9569,Yb4As2O
mp-695601,3.6089,Na7Al12Si12H6ClO48
mp-675543,0.4551,Bi2PbSe4
mp-556950,2.0323,ZnS
mp-29213,2.101,Cd2Ge7O16
mp-769564,1.5101,NaVPCO7
mp-35769,6.6744,Sr4Lu3F17
mp-4157,3.7142,Sr(NO3)2
mp-762295,1.9542,K2Mn3V2(HO5)2
mp-531201,0.7393,Ho2CdSe4
mp-765768,1.4721,LiCo2OF3
mp-23993,4.3261,H4CSN2
mp-29266,1.7363,CsS
mp-27988,1.4657,IF7
mp-755759,3.2119,ZrO2
mp-540629,1.4057,Al2Te2Cl7
mp-777892,0.546,Li4V2Fe3Sb3O16
mp-690566,0.2215,NaCo2H3(SeO5)2
mp-555918,2.3115,Hg2SeO3
mp-780494,0.9493,Li10Mn3Cr3(CoO8)2
mp-9751,3.4013,Al2Ge2O7
mp-760418,2.9057,Ba2SrI6
mp-554845,1.2497,Na2Zn2O3
mp-675472,4.0191,Al17(NO7)3
mp-780533,0.9912,LiMnSiO4
mp-559284,4.1788,Rb2Al2B2O7
mp-755362,2.0963,Sm2Se2O
mp-4160,1.4838,Tl3PSe4
mp-1020147,5.0787,Na2Mg2P3NO9
mp-767162,1.044,Li2Mn3O4F3
mp-12236,3.3298,Er3Ga5O12
mp-676108,2.1888,Gd8Zr7O26
mp-758845,2.3702,Ba5Nb2O10
mp-27643,1.6431,K3MoCl6
mp-288,0.3669,PtS
mp-552547,2.8703,SrBiIO2
mp-555899,5.2253,Li2Si3O7
mp-850329,1.4527,Fe4O3F5
mp-756646,3.5606,SrLu2O4
mp-23041,1.6368,SbSI
mp-14555,4.3762,LaCd(BO2)5
mp-696528,4.8301,KPH3NO3
mp-28247,0.866,K2PtI6
mp-770541,0.8309,Mn2PO5
mp-31950,1.7367,LiMn(PO3)4
mp-780898,4.0166,Li3Mn2(PO3)7
mp-571190,0.7425,GaHg2SbCl4
mp-569786,1.8018,Er2PbSe4
mp-1154,0.5867,Ho4C7
mp-779054,0.6973,LiV2(OF)3
mp-950214,3.3714,Cd2TeCl2O3
mp-8986,3.0692,Ba2GdC2(O2F)3
mp-754903,5.4534,Y(BO2)3
mp-556424,2.458,RbVF3
mp-7826,1.3022,HgO
mp-5587,2.0205,Ba2ZnS3
mp-18104,3.5318,Na2Si2S5
mp-774193,3.654,La2WO6
mp-16595,3.7064,K3DySi2O7
mp-13602,1.6357,Cd3(AsO4)2
mp-18115,1.4334,K2Sn2Hg3S8
mp-568696,1.8342,SiC
mp-636731,3.1332,Zr(MoO4)2
mp-36262,2.8894,BrO2F
mp-699151,2.9617,Sr6Mg7H26
mp-772883,3.3618,Ba6Sr11I34
mp-776001,0.2598,Li4Nb3V3(SbO8)2
mp-23927,4.5618,TiH12(NF2)4
mp-770586,1.9659,Li3AlCrO5
mp-8564,4.0897,CsK2Sc(PO4)2
mp-774377,3.012,Li4Mn3Fe(BO3)4
mp-755333,0.2727,HgO2
mp-542445,3.9805,K2PaF7
mp-779897,0.2507,Fe6O7F5
mp-995224,5.2707,CO2
mp-779086,2.8159,LiCr(PO3)4
mp-950217,0.4677,BiI4
mp-570539,1.5282,Rb3As7
mp-13725,5.8202,Li3PO4
mp-676191,3.0254,Sc11Nb3O24
mp-753826,1.076,LiCuS
mp-777252,3.3871,LiFeF4
mp-19218,0.7371,Sr3Fe2O5
mp-6479,5.276,KDy(PO3)4
mp-755769,4.2046,ZrO2
mp-20066,6.6332,CO2
mp-3419,2.5013,RbAuF4
mp-559767,2.9276,LiAsO3
mp-530294,2.8528,Sm2Zr2O7
mp-755546,1.9849,Na6BeO4
mp-754429,3.349,CaTm2O4
mp-18761,1.8096,K3V3O8
mp-704848,1.2197,V2Re2O11
mp-14787,2.5376,Tm2S3
mp-768310,3.0727,LaBiO3
mp-556287,2.4062,NaBi2Sb3O11
mp-19261,3.3063,Na3MnPCO7
mp-556362,3.5986,BiSeClO3
mp-27985,5.0908,YClO
mp-704186,3.4639,LiFe4(PO4)3
mp-29001,5.1658,NaLuCl4
mp-554732,4.6864,RbSbS(O2F)2
mp-28627,0.991,K4Br2O
mp-758203,2.1307,Sb8Cl2O11
mp-626340,3.7441,Ba(H8O5)2
mp-556290,6.2294,SrMgF4
mp-696618,5.5378,CaB2(H2O3)2