id,formation_energy_per_atom,pretty_formula
mp-772319,-1.242710877,Li4Co3Ni5O16
mp-867330,-0.495272772,Al2FeNi
mp-541000,-0.277059664,K3As11
mp-559895,-1.928664831,ErCuTe2BrO6
mp-558763,-0.933161528,Ag2Hg(SeO3)2
mp-769855,-2.587222925,SrCrO3
mp-973276,-0.310304264,HoLuCd2
mp-22592,-2.716098976,CaTi4(CuO4)3
mp-561182,-1.868720169,Ba4Tl2Cu2HgO10
mp-556017,-3.581480939,Th2P2O9
mp-30543,-0.438274386,RbAg7S4
mp-972692,0.043388847,SnPb
mp-554602,-1.354507974,Rb2PdN2(ClO2)2
mp-14536,-2.513402014,KNa2Zn3(PO4)3
mp-867179,-0.375921606,SrCdHg2
mp-989638,-0.600064644,CaTcN3
mp-7961,-1.660498031,Sr3SnO
mp-1019804,-2.272838886,KB(SO4)2
mp-30747,-0.190201123,Zn11Ir2
mp-4073,-0.516685315,Sm(CoB)2
mp-775289,-2.250342669,Mn3CrCu2(PO4)6
mp-639526,-0.444825284,La2(ZnGe2)3
mp-19455,-2.139686759,MnMoO4
mp-570527,-0.910306732,Yb5Au4
mp-24446,-1.883378524,LiH2SO4
mp-3901,-3.539216932,NdNbO4
mp-2123,-0.144051322,Nb3Au2
mp-556975,-1.941347564,Nd3CuSiS7
mp-13753,-2.846804098,SmP5O14
mp-27925,-4.249380864,KEr2F7
mp-12736,-0.59960883,TbB2Rh2C
mp-28994,-0.59239552,KLi2As
mp-13914,-0.218199104,LiCo2Ge
mp-555257,-2.734129177,Mg2BiPO6
mp-561067,-2.996181421,KRb2FeF6
mp-2963,-3.473724657,CaAl2O4
mp-3991,-0.296570172,UMoC2
mp-4478,-0.979351688,CaSiPt
mp-634378,-2.036837039,NaHSO4
mp-14099,-2.016820502,ZnAgF3
mp-770698,-2.494728343,Li2AlFeO4
mp-756550,-2.802484723,TmAsO4
mp-540957,-0.823481579,Cs2TeI6
mp-978525,0.250823508,Si3Mo
mp-676262,-2.707966984,TaTlO3
mp-559113,-1.249529712,ScH24C3S3(N3O5)3
mp-510273,-1.87318245,CsSbO2
mp-554894,-1.742876368,MgTlP(H6O5)2
mp-775018,-2.788956249,TiFe(PO4)2
mp-572284,-1.575980904,SbXeOF9
mp-978513,-0.081419674,SmErMg2
mp-37605,-1.647160977,LiNdSe2
mp-770968,-2.192742396,Na3NiPCO7
mp-581868,-1.466122277,NaY(IO3)4
mp-755491,-3.205192643,Sr2Ti6N2O11
mp-765739,-2.806756649,VOF
mp-998434,-2.446212351,RbTlF3
mp-771575,-2.39636486,Li2TiMn3O8
mp-583168,-0.141526314,NaSn2
mp-707395,-1.505399233,NaH2SeO4
mp-691091,-2.118005666,Na2Al2Si3(HO3)4
mp-28566,-0.860477334,NaTiSe4
mp-1018681,-0.428047214,DyZnIn
mp-2196,-0.715378252,BaSb2
mp-558603,-3.086882003,K2Si4O9
mp-971705,-0.18939549,Tm2MgTl
mp-781603,-2.498226559,Li4Mn3Fe(BO3)4
mp-9870,-3.080905193,K3Ta3(BO6)2
mp-569383,-0.815025033,Ca5(CoN2)2
mp-769662,-2.413215547,Li2TiFe2O5
mp-706518,-1.510771648,TlCrO4
mp-769021,-1.263157343,Na2CuO2
mp-568540,-0.390006022,Ag5Hg4P8Cl5
mp-697096,-0.44369108,Na2H4Pt
mp-683957,-2.395989038,Nd4CuTe5(ClO5)3
mp-571370,-0.385976412,Fe2NiP
mp-28002,-1.278980411,Rb3Mn2Br7
mp-29160,-1.892595301,TiAg2O3
mp-10883,-0.232697967,AlCrCo2
mp-744025,-2.84686592,Sr8Mg3Fe(MoO6)4
mp-672257,-0.435572078,Tm2Ga8Fe
mp-684509,-2.518599204,LiSn(PO3)3
mp-28503,-3.358757666,Al10Si2O19
mp-982016,-0.233634275,Tm3Ga
mp-910,-0.453168714,NbC
mp-11203,-0.551382829,Lu6FeSb2
mp-643791,-2.225616411,RbP(HO2)2
mp-690518,-1.25142533,Na(CoO2)3
mp-555506,-3.52910774,ZrCrF6
mp-655613,-1.537506472,Cs2Tb6Te7N2
mp-27776,-0.937862932,Cd2AsCl2
mp-3179,-0.636154588,Tb3(CuSi)4
mp-972202,0.391036486,TcAs3
mp-669304,-1.915296346,Cs3Tb2Br9
mp-995282,-0.047130536,LiAlB4
mp-649608,-1.576346342,K3Pr2(NO3)9
mp-759211,-1.586164888,La2H22S6N6O23
mp-585,-0.283604401,MnB2
mp-2662,-0.614974711,MnP
mp-23567,-0.67092289,CuHgSCl
mp-27450,-1.442263817,KCuCl3
mp-6478,-2.778501016,LiTaGeO5
mp-11276,-0.626960715,BeRh
mp-850974,-1.676675609,Na7Cr2O6
mp-706339,-1.848124858,MgB3H15O13
mp-2998,-3.496496802,BaTiO3
mp-541668,-2.410222386,SbP2O7
mp-770630,-2.52580649,RbLi2Cr2(BO3)3
mp-999027,-0.15684091,Ti3Al
mp-567022,-1.874517319,K3Bi5(AsO4)6
mp-974045,-0.504567842,La11In9Ni4
mp-22705,-2.992012427,BaPrO3
mp-1800,-0.167341698,Nd2C3
mp-540829,-2.035596725,RuF5
mp-31744,-2.321348495,Cr3(PO4)4
mp-19168,-3.017790922,LaMnO3
mp-673635,-0.164793356,Fe3N
mp-672254,-0.631350363,CaPdPb
mp-862694,-1.02298874,Al2IrRh
mp-30723,-0.138423497,Th2Hg
mp-867884,-1.853848997,RbBaTaS4
mp-556214,-3.044571793,CaB4O7
mp-973325,-0.279031424,Li2MgGe
mp-770510,-2.069893022,Li5MnO4
mp-760798,-2.401825866,Li2CuF5
mp-11799,-0.289043798,PrNi
mp-15922,-3.215479877,Gd2ReO5
mp-28727,-1.969170692,La4Bi2S9
mp-998610,-0.998707051,TlAgCl3
mp-21571,-1.672922225,La4In5S13
mp-865149,-0.576895075,PaAlRu2
mp-560282,-1.49619736,K2Ba(NO2)4
mp-850365,-1.961106605,Ni5Te(PO4)6
mp-556605,-3.815137562,ZrO2
mp-672313,-0.438932957,Sc6Pb5
mp-12648,-0.210069958,Ti2Be17
mp-542570,-0.099103322,AsSe
mp-777465,-2.509401273,Li3P3(WO6)2
mp-771911,-1.953511306,Ni3(PO4)2
mp-21167,-0.475868552,Ni2P
mp-776363,-2.352724714,Zr2N2O
mp-30572,-0.401023578,Hf2Ga
mp-555421,-3.084166114,Na3TmSi2O7
mp-554549,-2.75590432,CaGeO3
mp-30800,-0.359110719,NdZn2
mp-560777,-1.715409326,K3Hg3S2Cl5O6
mp-13791,-3.359646265,BaNaNd(SiO3)3
mp-10796,-0.984752273,HgSeO4
mp-5540,-3.036751889,SrB4O7
mp-868267,-2.084407938,Li6Mn3Cr2Fe3O16
mp-705680,-2.866363482,La2Mo2O9
mp-770486,-1.702519461,Li3Ni2SnO6
mp-1001602,0.210620854,B12W
mp-4259,-0.471493923,Ca(CoGe)2
mp-775225,-2.697521022,Nb3Ni(PO4)6
mp-18978,-2.711232997,Sr2MnO4
mp-38,0.006714762,Pr
mp-34376,-1.949445934,Tb2CdS4
mp-581114,-3.329450056,Cs2YSi4O10F
mp-761269,-2.407382739,Li2AgF4
mp-585339,-2.237810005,LiCu2P5O16
mp-1005831,-0.590263979,Tb2Co3Ge5
mp-756495,-1.659841289,Li3CuO2
mp-973894,-0.310871014,LaNdZn2
mp-769582,-3.50273307,Sr5Ta4O15
mp-977575,-0.223324025,MgSbRu2
mp-560966,-1.532535274,K2RuNCl5O
mp-4549,-1.369423893,SrSiN2
mp-865944,-0.413205899,ThSnRu2
mp-561942,-1.755872647,Cs3TaO8
mp-12889,-0.422369719,ZrU3Sb5
mp-1001015,-2.046419407,Y2ZnS4
mp-31149,-1.09415951,Ca3BiN
mp-28429,-2.318844758,Na2PrO3
mp-510593,-0.707711026,Dy5CoSb2
mp-554105,-0.67722274,CdAg2GeS4
mp-7433,-0.589429266,NaCuSe
mp-694955,-3.458185304,NaLi2La3Ti6O18
mp-757305,-2.766636702,Li2TiP3O10
mp-752943,-2.458825135,Li4Cu(PO4)2
mp-559151,-3.512209513,BaSrTa2O7
mp-974832,0.035207075,Rb3Pb
mp-638009,-1.062449575,RbPPbS4
mp-2960,-0.733927503,HfSnRh
mp-644533,-0.466366412,Yb2Ga10Ru3
mp-768735,-1.732331031,Ba2SrI6
mp-754435,-3.741812809,LuAlO3
mp-641367,-1.584516548,Cr3AuO8
mp-16922,-0.846101962,Ba2Sb3
mp-541415,-1.823454555,KH5S2O9
mp-560658,-1.92998697,Na5Bi2As5O18
mp-10461,-2.755748397,NaSr3SbO6
mp-698313,-1.587734681,Rb2CuH4(C2O5)2
mp-757669,-1.635568713,LiCuC2O5
mp-977403,-0.060256261,Na3Tl
mp-697408,-1.129759459,H10C2N2O5
mp-556009,-1.589325201,MgTlAs(H6O5)2
mp-657300,-0.952049246,RhSCl5
mp-763176,-2.152490079,Mn3(O2F)2
mp-504771,-0.724087082,LaCo8P5
mp-23065,-1.247079898,CsCu2Cl3
mp-772342,-2.891302232,Y2W2O9
mp-11240,-0.85933925,DyAu
mp-20231,-0.722168123,CeInPd2
mp-850257,-2.560168663,Li3V2P4(HO8)2
mp-8535,-1.067614123,ErSi2Rh3
mp-774586,-2.775701697,Nb3Sb(PO4)6
mp-762412,-2.081627874,Li2Mn3O6
mp-715035,-2.435691388,VO2
mp-552234,-2.244690826,SrBiBrO2
mp-6428,-2.853292083,Ba2YRuO6
mp-646749,-1.853200072,Nb2Ni4O9
mp-760533,-3.68967892,SmZr4O9
mp-20832,-0.373562875,Zn(InTe2)2
mp-35630,-1.432810456,Pr2CdSe4
mp-27344,-0.226027626,Be(BH4)2
mp-862378,-0.506286015,Sc2TcAu
mp-27221,-3.9615094,Ca2Hf7O16
mp-7421,-0.476302436,KZnAs
mp-554479,-3.228799749,Ba3BPO7
mp-672227,-0.133504409,CaZn13
mp-1019315,-1.029759253,TbSbPd
mp-28950,-0.807567787,P4N6O
mp-755450,-3.916509225,La2Ce2O7
mp-560443,-0.739276824,AgHg2NO5
mp-769025,-2.272231768,K2Mg2O3
mp-864961,-0.691035655,Be2PdPt
mp-32958,-1.78662121,Sm2F
mp-30792,-0.170629334,NaPb
mp-697670,-3.26657745,KAlSi3O8
mp-23319,-1.847843548,RbVCl3
mp-29259,-1.423511013,Bi2PdO4
mp-7251,-3.462096615,Ba2YNbO6
mp-989399,-1.00529151,Ca6Al2NF
mp-754663,-2.422846497,Na2Be2O3
mp-568346,-1.839065112,HfBrN
mp-11532,-0.136605228,Zn11Ni2
mp-1431,-0.465441146,MnSi
mp-557569,-1.799472009,SmAsS
mp-883,-1.933085959,HoN
mp-867712,-1.998594255,LiAgF4
mp-1169,-0.269391452,ScCu
mp-773140,-0.942981678,Co3NiO8
mp-761021,-1.595695737,Li3Cu(TeO3)4
mp-9480,-3.206182655,KAlSiO4
mp-2588,-0.157751635,YCo3
mp-568685,-0.953223639,TmAlRh
mp-977011,-1.020722525,H3PbCI3NF3
mp-865432,-0.618207685,Y2NiIr
mp-1018054,-1.096534857,HfPt3
mp-1018022,-1.203928448,NbInS2
mp-768537,-1.361289758,Cs3TlO3
mp-767471,-0.944326046,Li5SbS
mp-941221,-0.335469885,Li(BH)5
mp-30639,-0.068200817,Th2Fe7
mp-770765,-2.20500461,Na3MnBAsO7
mp-1016874,-1.740122896,SiHgO3
mp-19242,-2.378705823,YNiO3
mp-568759,-1.532281566,NaNd4I7N2
mp-672676,-0.125329223,U(WC)4
mp-697540,-1.520641823,K3GeH2NO3
mp-569941,-0.867843394,Ce3Sb3Au2
mp-772625,-2.153199224,Na2SnBAsO7
mp-867155,-1.230851422,Sr5Cd2Sb5F
mp-989515,-1.084028923,LaMoN3
mp-3591,-0.706971927,NdBRh3
mp-753517,-1.77862099,SrBi5O9
mp-730691,-2.381800411,CaU2Si2H12O17
mp-865520,-0.729280716,YCdPd2
mp-28155,-3.188333952,LaNb5O14
mp-551135,-2.60270034,BaCuB2O5
mp-861943,-0.024571282,BPt3
mp-865181,-2.619186922,EuGeO3
mp-30858,-1.020074037,ZrPt3
mp-600220,-1.531471954,InH6(CO3)3
mp-561045,-3.011730731,Ba8Ce3(SbO6)4
mp-504539,-3.870784455,CaLu2O4
mp-560528,-3.035678555,K2Ce(PO4)2
mp-863737,-0.263699925,Ho3In
mp-2752,-0.067266049,Nb3Au
mp-753923,-2.219670705,Cs3HoO3
mp-1001613,-0.601750392,LuGa
mp-623590,-2.140408008,RbV2SeO7
mp-558557,-2.459709815,BaLa4Cu5O12
mp-754596,-2.057657239,RbGaO2
mp-18984,-2.71851511,Na2ZrNi(P2O7)2
mp-5836,-3.849075424,ThSiO4
mp-697784,-2.316498393,LiFe2(PO4)3
mp-861979,-0.75240379,Ir2S3
mp-567975,-1.443522484,AlPNCl5
mp-985281,1.876224247,CsIr
mp-977354,-0.250224429,HoTaOs2
mp-763342,-2.220361177,FeOF
mp-685126,-0.211564749,Cu39S20
mp-639506,-3.275927052,SiO2
mp-28485,-1.614130439,Sb5IO7
mp-9930,-0.970730175,UPSe
mp-561233,-2.349770291,Sm9(SbO)5
mp-12854,-0.184679706,ZnCu2GeTe4
mp-1009135,0.043694684,MnP
mp-763447,-2.198725838,Li5Ti2Co5O12
mp-977576,-0.575312063,NdZnAu2
mp-28587,-1.667323944,BaH8O5
mp-625832,-1.085161786,Ba(H2O3)2
mp-867297,-0.412456694,AcIn3
mp-981,-4.253588357,SrF2
mp-542804,-0.550470777,La5NiPb3
mp-39140,-2.981293491,Na4Al3Si3HO13
mp-6044,-3.27215717,Sr6B(PO4)5
mp-983152,0.831439514,Li3Re
mp-12075,-0.433596139,Tb(FeB)2
mp-862321,-0.522212124,LiAsPd2
mp-989602,-0.965567066,LaReN3
mp-669358,-0.59045439,CdI2
mp-560527,-3.279249188,SiO2
mp-769253,-3.371991221,Dy2SeO2
mp-579552,-3.3005272,La2CO5
mp-567589,-0.419881645,DyAl3
mp-766374,-2.499800142,LiSiBiO4
mp-972119,-0.427038089,SrCaTl2
mp-978625,-0.256985899,Sm2MgTl
mp-756238,-1.670336489,Sr2CaI6
mp-14152,-3.554565609,SmNbO4
mp-18698,-2.557759907,CsPr(CO3)2
mp-686722,-1.236675778,Na3TlH24(ClO2)6
mp-540809,-0.736310229,Zr2Fe12P7
mp-13203,-0.540519507,ScCuSn
mp-7032,-0.964312332,HfMoP
mp-11098,-0.688334759,YbMgPd
mp-13097,-0.41567518,NaZnAs
mp-28614,-0.438071695,NaBPt3
mp-569853,-1.029741024,CsNb4Br11
mp-862995,-0.416656593,Er8Ga3Co
mp-782647,-2.572972242,Li2MnP3O10
mp-30967,-0.164335881,Tb12Co7
mp-778274,-3.725140165,Dy5Ti5O17
mp-18851,-2.24708807,NaCr(WO4)2
mp-759704,-2.316940227,Li2Cu2P4O13
mp-504805,-0.920593046,Cs(Zr3I7)2
mp-569877,-0.701109131,Dy2InGe2
mp-1018708,-0.321602435,GdTlZn
mp-997589,-3.58967734,La8Al7InO24
mp-781772,-2.181540348,Li2Mn3VO8
mp-567513,-1.077976049,Ho(SiIr)2
mp-760062,-3.206367166,Na3Ti8O16
mp-672238,-0.654498418,CeCuSb2
mp-677703,-2.199018806,Nd4Si4N7ClO3
mp-776589,-2.560814624,Li9Sb3P8O29
mp-776260,-2.349798373,Zr2N2O
mp-12620,-3.041402591,NdSeF
mp-694873,-2.389213779,SrLaNiRuO6
mp-769486,-1.952368372,Na3Ni2P2(CO7)2
mp-9820,-2.790896316,CsAsF6
mp-559994,-2.228986142,La6S4BrN3
mp-13994,-1.593706985,Ti3NiS6
mp-30278,-0.944731307,Ce3Ga4Cl
mp-850186,-1.88545774,Li4Mn2Co3Sn3O16
mp-559373,-2.043792473,Ge4PbO9
mp-762240,-2.559303467,K2Li2TiO4
mp-21845,-0.111982075,FePd3
mp-7310,-3.565918078,ZrPbF6
mp-775337,-1.696506606,Li4Fe2Ni3Sn3O16
mp-571150,-1.070209688,Cs2Zr7CI18
mp-570192,-0.973759821,CsZr6MnI14
mp-28628,-0.520577807,Li3FeN2
mp-567966,-2.190213202,RbZr6CCl15
mp-558392,-1.479574518,Bi2Ir2O7
mp-20469,-0.349315483,YbIn3
mp-27471,-1.017536282,NbPS
mp-976446,-1.890004167,MgMnO3
mp-762011,-1.905738549,LiCrCoO4
mp-558170,-2.499959171,Rb3PO4
mp-540133,-2.352122804,LiCoP2O7
mp-779269,-2.644295379,LiMnF5
mp-19264,-2.194189294,Co3(PO4)2
mp-634430,-2.333853742,VO2
mp-652548,-1.843463015,MgMn3(CuO4)2
mp-850401,-2.751918524,Li2FeOF3
mp-2763,-3.765317978,Nd2O3
mp-677391,-4.001096692,Tm4Zr3O12
mp-30902,-2.623435324,Er2Ru2O7
mp-1033,-0.46773576,BeNi
mp-558326,-3.27826384,SiO2
mp-581877,-3.271042454,Cs2Zr(Si2O5)3
mp-7586,0.058718185,Ni3C
mp-767276,-2.639465864,Li5Fe5Si7O24
mp-568727,-0.538175343,ErRh3C
mp-568670,-2.488622395,Cs2NaTbCl6
mp-637609,-0.800253284,Ce12InPt7
mp-555313,-2.789652451,ScBiO3
mp-850929,-3.093914105,Li4MnF6
mp-21276,-0.873700262,PbS
mp-755435,-0.01264833,Tl2Au
mp-19959,-0.698624532,LuTiGe
mp-647556,0.072961163,Tl8(CdN14)3
mp-780497,-2.469615288,Li2MnFe(BO3)2
mp-972275,-0.574230698,Ti2ReRu
mp-15965,-0.746169426,Hf5Si3
mp-28065,-2.438492819,ThNCl
mp-22440,-1.108062751,LuSiIr
mp-20456,-0.279990773,Co3Se4
mp-29770,-0.370392874,Na3(Mn2Te3)2
mp-30677,-0.627422208,Tm3Ga5
mp-774318,-1.762179039,Li10Fe3Co3(NiO8)2
mp-555030,-2.921966699,NaY(PO3)4
mp-542816,-0.807681368,Zr5SiSb3
mp-979074,-2.018049504,TmO3
mp-4219,-0.738599143,CeGeAu
mp-1716,-1.095088965,Rh2O3
mp-662,-0.237448957,NiSe
mp-989540,-1.205504165,Sr6Sn2NO
mp-975296,-2.316605986,RbHoO3
mp-6875,-3.317649033,BaNa2Al4(SiO4)4
mp-757365,-3.551315424,LaTa3O9
mp-569841,0.007735461,Ba19Li44
mp-675896,-4.188545743,Ca2NdF7
mp-675677,-2.502398805,Yb(SmS2)2
mp-24066,-2.501893488,SrHClO
mp-19282,-2.67581275,Sr2ZnWO6
mp-639135,-1.65869875,Pr3RuCl3
mp-4076,-0.185099837,VCoSb
mp-643367,-1.082002216,YCBr
mp-30197,-2.48654053,K3ErCl6
mp-28927,-0.654347723,Ba(NiP2)2
mp-950995,-1.326420551,Li6PS5I
mp-631320,0.550351458,TcIrOs
mp-6919,-0.692567627,ScSnAu
mp-769545,-1.44018149,Li10FeNi9O20
mp-567907,-0.538030913,P3N5
mp-9003,-0.939407666,K2NbCuSe4
mp-11982,-2.825392218,Sr2CaTeO6
mp-560866,-2.965243826,LiLa(PO3)4
mp-673244,-1.547551741,Bi2O3
mp-33500,-1.954830291,Cr2HO4
mp-9791,-0.595117298,Tl3AsS3
mp-975200,-1.373880281,RbSrO3
mp-20622,-0.609087066,SiPd3
mp-4009,-1.552998651,BaPdS2
mp-555769,-2.789479252,ScBiO3
mp-770689,-2.692998422,Li2MnAl2O6
mp-558303,-1.801062277,Ce3CuGeS7
mp-21594,-0.810224718,Ca9Zn4Sb9
mp-560208,-2.283262932,K3NbAs2O9
mp-2562,-0.930847365,MnS
mp-696127,-0.813911519,Li10Ge(PSe6)2
mp-770954,-2.616007503,Li4Nb2V3Cr3O16
mp-14307,-2.165359337,Mg(ScS2)2
mp-756325,-3.510369038,La2(SiO3)3
mp-568746,-0.234552182,Bi2Pd
mp-7560,-3.588235334,LuBO3
mp-756599,-3.266917253,La2ZnO4
mp-15492,-3.445248122,DyTa7O19
mp-849542,-2.431321589,Li2MnVP2(HO5)2
mp-29841,-0.862444048,Rh3S4
mp-757963,-1.834310581,K2MgH8(CO5)2
mp-19104,-2.4289799,LiYb(WO4)2
mp-754064,-0.429750416,MnP2
mp-29157,-0.410375155,Si3P2Pt
mp-27304,-1.797378383,K2MnCl6
mp-36538,-2.086699783,La2PbS4
mp-555904,-2.849766966,NaSmGeO4
mp-13008,-0.391382004,NdCrGe3
mp-29241,-1.776272746,Ca3SnO
mp-975134,-1.215420171,KRhO3
mp-3463,-3.365734457,CaTi2O4
mp-569175,-2.251490226,ZrCl4
mp-772511,-1.965032764,Li4Co3Sn5O16
mp-608398,-1.23431345,NbSNCl6
mp-6698,-3.189778085,Th2Cu(PO4)3
mp-769032,-1.479913297,Li3NbS4
mp-35482,-1.918028237,Ti(FeO2)4
mp-17966,-2.635600901,KInP2O7
mp-770500,-2.381566978,Na6Mn2B4SO16
mp-504944,-2.16913992,NaP(HO2)2
mp-780132,-2.179821851,NaCr6O11
mp-12187,-3.145831856,Na2Mg2(Si2O5)3
mp-776751,-2.1957967,Li4V5Co3O16
mp-974799,0.16822285,Rb3Sr
mp-6622,-3.670984821,BaNd2Ti3O10
mp-20350,-0.314196373,DyCoC
mp-4822,-0.95086319,Y(SiPd)2
mp-696128,-1.26913081,Li10Ge(PS6)2
mp-764957,-2.525470594,Li2CoSiO4
mp-29345,-0.780753749,LiGaI3
mp-542662,-1.275642659,Ga2Te2Cl7
mp-5373,-3.774138242,Y2Ti2O7
mp-630883,-0.470547684,Ni6Mo2P3
mp-38816,-1.737275865,Mg(TiS2)4
mp-556562,-2.000569157,LiAsH6(OF2)3
mp-24308,-0.890523031,AlSiH9C3Cl2O
mp-696019,-2.010115627,Na3P2H4O7
mp-997008,-0.785390208,TlAuO2
mp-2179,-0.399324877,TiRe
mp-775286,-1.547153807,Li2Fe3NiO8
mp-2632,-2.119408859,TlF3
mp-6988,-0.312411651,FeN
mp-1008867,-0.698067748,NaCuO
mp-774350,-2.875229936,Mn6OF11
mp-754329,-1.867093826,CdSnO3
mp-14092,-0.360169449,AlAgTe2
mp-558608,-2.761456698,Nb2PbO6
mp-541600,-3.40311079,RbLaTa2O7
mp-756810,-3.603660829,Sr3Ta4(O6F)2
mp-15614,-0.387436624,Cu(RhSe2)2
mp-541740,-3.133730085,TaPO5
mp-984705,0.126901586,ErRu3
mp-978514,0.027800969,SmTm3
mp-752728,-2.246589039,Rb2S2O7
mp-755792,-3.184200669,LuGaO3
mp-32787,-2.438756182,Ho2S3
mp-32684,-0.306189167,HBr
mp-18271,-2.963702407,Na5Ti2Si2PO13
mp-697692,-2.388518881,LiCr(PO4)2
mp-16505,-0.393361226,La3Al11
mp-998314,-0.924917526,CsInI3
mp-21052,-0.870095193,Tb2InPd2
mp-12381,-0.840548,PrSnRh
mp-568624,-0.338741767,Tb2B2C3
mp-771903,-2.28936283,Fe5Cu(PO4)6
mp-559441,-3.053518488,LiTiPO5
mp-612670,-0.516101663,YNiBC
mp-999516,-0.457768244,MnP
mp-976884,-0.694146975,PrBiPd2
mp-20525,-1.633451116,CuSO4
mp-864835,-0.667236185,Hf2CoIr
mp-676586,-1.348200343,Na(VS2)2
mp-705390,-2.387200194,Li3Fe4P9O32
mp-571550,-0.187369877,Sb2TeSe2
mp-766570,-4.195921732,Ce3Th4O14
mp-780184,-1.711112764,Na2Cr4O13
mp-20722,-0.507008241,CeFeGe3
mp-680781,-2.304807827,Rb3Tm(SO4)3
mp-754655,-2.706257983,Eu2SeO2
mp-977053,0.023911802,Pm3Er
mp-4228,-0.757465025,Nd(CoSi)2
mp-597,-0.372018636,TiNi
mp-864951,-0.246076137,MnAlOs2
mp-759870,-2.190795066,BiOF
mp-676711,-1.535571845,CIF5
mp-18960,-3.232445005,ErVO4
mp-761873,-3.498148937,KTiF4
mp-778057,-1.73587986,Na2SnO2
mp-29002,-0.355497693,SrMgSi2
mp-765394,-2.236500854,LiNiPO4
mp-511,-0.833500945,PrGe
mp-754871,-1.863542813,Na3BiAsCO7
mp-542522,-0.525564014,Bi14PdBr16
mp-1013706,-0.484127933,Sr3BiSb
mp-540331,-2.561923671,LiMn(PO3)4
mp-1798,-0.013105262,CeMg3
mp-30182,-0.646716355,ThAl3Ni2
mp-19737,-0.501306572,LaMnSi
mp-644295,-3.15995585,CaZrGeO5
mp-28967,-1.218334259,Ba(PdS2)2
mp-504729,-2.431002504,Cs2PdF6
mp-571405,-0.389006769,NdTl
mp-976892,-0.397360207,Na(TeMo)3
mp-607080,-0.14731019,NdCu9Sn4
mp-759686,-2.985294141,BeAlSiHO5
mp-7951,-1.735052197,ThSe2
mp-3128,-0.776417756,ErCoSi2
mp-569434,-0.476827983,Yb2(ZnGe)3
mp-759288,-1.184155878,GaH5(NF)2
mp-769009,-2.773992232,Ba2YCl7
mp-3456,-0.600666854,Tb(CuSi)2
mp-9364,-2.15727385,RbSmS2
mp-850280,-1.645675182,Na8SnO6
mp-696701,-1.510346626,HPbClO
mp-19847,-1.094378649,Tm3InN
mp-12623,-2.868128486,BaPdF4
mp-777917,-2.06711566,Li4V5Cu3O16
mp-21014,-0.877852184,DySnPd2
mp-17105,-0.254153491,Hf9V4S
mp-1018088,1.299378986,C
mp-542863,-3.500455604,Ca7NbSi4O17F
mp-5227,-1.017078605,Dy(NiP)2
mp-695830,-1.419085885,Na2Cu(HO)4
mp-558768,-0.986046251,Ag2TeO4
mp-556585,-2.983345984,MnF2
mp-996995,-1.443984981,MnAgO2
mp-972941,-0.089401564,NaBi3
mp-30734,-0.74560202,Ho5Rh3
mp-752959,-2.548809523,Sc5Cu5O13
mp-773671,-2.415009867,MnFe(PO4)2
mp-561454,-1.808617776,KAu(SO4)2
mp-28760,-1.228116411,KRbS
mp-14439,-1.417231823,K5TlO4
mp-721707,-0.875286357,H6C3N4O3
mp-37906,-0.764864744,LiMgN
mp-21054,-0.902861773,PrSnPd
mp-29570,-0.460266218,Ca2Si3Ag
mp-9512,-3.356713174,SrAl2P2(O4F)2
mp-5077,-0.570101674,NaLi2Sb
mp-643941,-2.677478431,CaAl2Si(HO2)4
mp-4562,-0.914231346,La(GeRh)2
mp-12783,-0.34935665,Sr(CdGa)2
mp-720583,-2.392879218,Na3B3H2O7
mp-5313,-0.504985943,HoCo3B2
mp-974584,0.653561708,ReAu3
mp-684743,-1.151605329,GaGe5H6C4NO12
mp-542314,-2.312651159,NdCuSO
mp-600049,-3.256713477,SiO2
mp-8179,-1.477079978,LiTlO2
mp-644097,-0.432823106,BaAlH5
mp-568718,-0.395226041,HfAl3
mp-28878,-0.244171021,RbTe6
mp-540884,-1.785862237,YCl
mp-622624,-2.106077557,Rb2Cr2As2O9
mp-865471,-0.240276785,VGaTc2
mp-557417,-1.901838493,As2Cl3OF5
mp-23614,-2.6988921,SrNb2Bi2O9
mp-28657,-2.152240855,Na2MgCl4
mp-2095,-0.702880951,Rb2Te3
mp-7193,-3.74479424,Lu2Si2O7
mp-21175,-0.353173137,TaGaNi2
mp-753947,-3.10279994,LuHO2
mp-556821,-2.510972344,RbEu(SO4)2
mp-977441,-0.646463042,MgPaRh2
mp-10552,-0.543545089,RbBSe3
mp-30746,-0.80567665,YIr
mp-12902,-0.900697457,ErAgTe2
mp-4360,-2.688622276,NaCdF3
mp-617632,-1.910820406,La3AgGeS7
mp-158,0.01343718,As
mp-863404,-2.237267956,Li2Cu2F7
mp-771948,-2.904145549,Ba3LaCl9
mp-770857,-1.85544173,V(SbO3)4
mp-4660,-0.440705112,Tm(FeGe)2
mp-556549,-1.633309188,Bi2O3
mp-23586,-0.568513948,Hg6S4Br3Cl
mp-16511,-0.234623443,Mn3Al10
mp-24165,-1.715562142,Li2H2SeO5
mp-631316,-0.401403362,Li2GaSb
mp-7739,-3.639997011,Ba2ZnF6
mp-764318,-2.6692398,Li2VFe(P2O7)2
mp-13036,-0.460752756,MoN
mp-631558,1.019010955,Hf2BiB
mp-19410,-2.272435053,ZnCr2O4
mp-1013719,-0.486302289,Ba3BiSb
mp-1001017,-0.535515582,Zn(InSe2)2
mp-774239,-1.434842628,Li(CoO2)2
mp-850980,-2.468428679,Li2Mn3(BO3)3
mp-28353,-0.695885532,NaTe
mp-6709,-3.446150787,Ca3La3(BO3)5