id,band_gap,pretty_formula
mp-776686,2.3929,Li5Fe3Ni2(PO4)6
mp-767145,0,Mg8V5O16
mp-540477,3.885,Li2Mn(PO3)4
mp-540789,2.3951,PbI2
mp-6812,4.9459,KBaPO4
mp-743538,4.2044,CrH18(O3F)3
mp-755138,2.6533,NdInO3
mp-6596,5.0452,MgAlPO5
mp-645301,2.6619,K2CoP2WO10
mp-9006,1.1317,Ho2CF2
mp-18677,4.3758,PrSc3(BO3)4
mp-752463,0.9941,NbNO
mp-622491,2.0074,Pb13(Br3O5)2
mp-776141,0.2018,Li4Fe3Co2Sb3O16
mp-624397,2.0545,SiC
mp-542782,3.0245,H8C3(NO)3
mp-22983,5.557,LiAlCl4
mp-697263,4.1987,LiAsH2OF6
mp-24126,3.8859,Sr3Al2(HO)12
mp-850876,2.9193,VOF3
mp-704637,1.8929,Nb12WO33
mp-17770,5.2973,CsPr(PO3)4
mp-17823,1.8718,Tl3B3S10
mp-6964,3.8925,NaTbO2
mp-557090,1.4016,Bi2Au5F21
mp-761592,0.4245,Li3Fe2CoO6
mp-12807,3.7538,KAlO2
mp-568137,4.3849,Cs3Mg2Cl7
mp-866141,0.4028,TiFe2Si
mp-23165,0.9388,PtBr3
mp-23321,4.5643,Sr4Cl6O
mp-3079,3.5465,CaTa4O11
mp-5012,5.0765,Li2SiO3
mp-763240,1.2663,LiCoSiO4
mp-705854,5.119,CaP3H10NO12
mp-6217,4.2342,LaSc3(BO3)4
mp-23049,1.3655,KMnCl3
mp-600078,5.6142,SiO2
mp-4511,3.0797,La2SO2
mp-555443,5.4844,PNF2
mp-23948,3.0927,Rb3MgH5
mp-17009,2.3646,Ba3Te2O9
mp-18216,4.572,BaCa2(SiO3)3
mp-27501,4.6925,Cs2ThCl6
mp-31415,3.4545,La3TaO7
mp-19188,1.586,Ba3Mn2O8
mp-600059,5.7111,SiO2
mp-850917,3.6639,LiFePO4
mp-28274,4.5144,Ba3In2F12
mp-756194,5.064,Tm4(B2O5)3
mp-17691,0.9983,Cu3SbS3
mp-998298,3.1627,CsSnF3
mp-776283,1.4043,Li4NbCo3O8
mp-626225,3.5137,Ca(H8O5)2
mp-554116,3.2598,BaPb2BrF5
mp-6076,4.3068,Ca4LaB3O10
mp-29531,1.429,CsBi3S5
mp-850403,3.3735,LiFePH2O5
mp-720593,4.9628,Na2B5H5O11
mp-555121,3.5807,MgAs2S2(OF3)4
mp-757173,3.007,Sb5O7F
mp-6499,4.4008,BaLiBO3
mp-757084,2.7857,Rb3SbO3
mp-755941,3.3946,Sm3TaO7
mp-23261,2.6663,I2O5
mp-18195,4.5717,Lu2SiO5
mp-13944,2.9373,Li3AlN2
mp-560833,2.816,B3Pb6ClO10
mp-721463,4.7602,K2P2H2O7
mp-762644,3.0831,LiFeSiO4
mp-770734,3.0162,Mg3(AsO4)2
mp-6109,2.9576,CaTiSiO5
mp-558891,5.65,SiO2
mp-35663,1.065,Sr(InTe2)2
mp-771780,0.9998,Li3Zn(Fe5O8)4
mp-556601,2.8421,BiBPbO4
mp-769211,0.9667,Tb2Pb2O7
mp-1002063,1.8354,SnS2
mp-769271,4.1974,Sr4Ta2O9
mp-695965,5.0044,RbNa2P3(HO2)6
mp-6179,5.3235,KLiSO4
mp-672289,2.0646,Ge3N4
mp-34210,3.0308,Al2ZnO4
mp-757466,3.7852,Li3Si2BiO7
mp-626378,3.5559,As3HO6
mp-22756,1.2095,K2PbO3
mp-775485,2.3797,Bi3PO7
mp-616185,4.4704,Rb2ZnCl4
mp-866482,1.2115,CsSi
mp-8921,2.9917,Cd4P6SN12
mp-568909,4.9977,Cs2MgCl4
mp-560010,3.6746,Rb2Ga2B2O7
mp-769485,0.5292,Na2MnPCO7
mp-774303,2.6116,Li6Mn5Fe(BO3)6
mp-23054,1.0679,NaBiO3
mp-699284,2.632,Li2HN
mp-762517,1.1269,Li4Ti3Fe3(TeO8)2
mp-558415,2.2349,K3CuP2S7
mp-27385,2.3193,KTlCl4
mp-758004,2.0838,K3Nb7O19
mp-15437,5.1106,MgP4O11
mp-12263,2.0692,LiAuF4
mp-850370,1.6435,Li6Mn2B4SO16
mp-1009639,1.5735,PrN
mp-642844,4.7633,BaH5BrO3
mp-693753,4.8172,BaNa5Ca7P6(O8F)3
mp-771295,2.9162,LiMnBO3
mp-1018721,4.6693,HfO2
mp-757587,2.6543,Dy5Bi11O24
mp-1019747,4.1202,K2Ca3Si3O10
mp-770210,3.6651,CaY2O4
mp-555173,2.2611,UCO5
mp-677042,4.4486,Na7Zr4Si5PO24
mp-3647,2.9608,LiGaS2
mp-689979,1.3134,LiFeP2O7
mp-695214,2.3787,Ba9La3Mg5Nb7O36
mp-765476,4.0053,Y13Ho3O24
mp-7841,1.8799,Ba(GaSe2)2
mp-17470,0.757,Ba3(SnAs2)2
mp-560794,2.7981,BaNbTePO8
mp-722988,3.5409,TeP4H26(NO5)4
mp-7603,4.3715,Li2TiF6
mp-3771,3.4987,MgTiO3
mp-744001,2.3057,Fe2H13C6NCl2O11
mp-558804,4.5981,CsGeB3O7
mp-778734,1.6764,Li6Fe3Sn(PO4)6
mp-505088,0.4869,NbTe4I
mp-973793,1.7533,Li8SeN2
mp-558063,0.6823,KCu(BiS2)2
mp-554610,5.7573,PrZr2F11
mp-21228,1.1989,SrCuSeF
mp-766540,2.3649,Li4TiS4
mp-764102,0.9315,Li3Fe2(SiO4)2
mp-707958,4.9035,PH9C2N4O5
mp-782657,0.4851,Mn3VTe2(PO4)6
mp-28874,0.9395,Hg2P3Br
mp-8348,4.2878,TlSbF6
mp-12525,1.6835,Sr2LiReO6
mp-780866,2.0062,LiFe2Si2O7
mp-561472,1.4468,Hg2PO3F
mp-698695,2.8711,CaFe2Sb2(PO4)6
mp-556708,2.2712,KUP3O11
mp-559951,2.304,SrTa2Bi2O9
mp-675430,1.5192,Sm4Ag2Se7
mp-723109,3.3192,BeH14(I2O9)2
mp-569815,0.4821,Si2Ru
mp-674328,1.3922,Zn(InS2)2
mp-775439,0.845,Li2Cr3P5O18
mp-29898,1.1305,Tl2Au4S3
mp-650619,0.6093,Cs3Bi7Se12
mp-781712,2.4072,Na2SnO2
mp-773980,1.1818,Bi3(TeCl5)2
mp-12442,1.9913,KAuF6
mp-554737,1.7788,CsAu2F7
mp-18351,0.9348,Sr3(GeP2)2
mp-760489,5.0658,PH6NO2
mp-568450,3.501,SrAlH5
mp-558992,0.4082,In7GeIrO8
mp-552488,1.5468,LaCuSeO
mp-567771,3.2694,Ba(Si3N4)2
mp-570311,0.5377,K4Sr2SnAs4
mp-772771,4.562,La4(B2O5)3
mp-556837,2.7409,AgAs(S8F3)2
mp-30002,3.8334,Sc(IO3)3
mp-849952,1.6864,LiFe4(BO3)4
mp-600024,5.75,SiO2
mp-622278,2.7395,TlV2SbO8
mp-755376,3.033,Er2TeO6
mp-677431,1.57,Na3SrTiNb3O12
mp-540469,2.9046,Li2Co3(P2O7)2
mp-634,1.7039,HgS
mp-850251,1.7662,Na2Ti9O19
mp-989577,4.2919,LiTl2GaF6
mp-662919,1.3688,SbTe(SeF3)2
mp-757541,3.139,LiSiBiO4
mp-22255,1.1743,RbInTe2
mp-561134,0.6424,Sn2SbS2I3
mp-769870,1.1003,Li4Fe3Sb5O16
mp-770390,1.5539,Li2Cr4O13
mp-28281,1.8097,H4I3N
mp-2970,2.8102,Na4GeO4
mp-604429,1.891,NaFe3H6(SO7)2
mp-4604,3.0112,Li7VN4
mp-1247,0.453,Sb2Ir
mp-761549,3.3342,LiMnPO4
mp-554889,2.0385,ZnS
mp-631621,2.4006,VBi(PbO3)2
mp-555528,4.9839,Ca2Th(Si2O5)4
mp-653429,0.9421,Mn7FeCl3O10
mp-699437,4.7868,KP(HO2)2
mp-626564,3.7376,Ca(H8O5)2
mp-28529,2.2777,KInBr3
mp-555717,0.3024,K2Nd2IrO7
mp-626271,3.5407,Sr(H8O5)2
mp-780217,1.992,Li7CuO4
mp-776435,1.1275,LaTiNO2
mp-754823,1.4341,ErTlO2
mp-556867,4.4301,K2PrZr(PO4)3
mp-760251,0.5229,Na2CuP2O7
mp-997003,2.7497,LaAuO2
mp-679987,1.6878,NbP2S2Cl5
mp-621930,3.978,Cs2SrN12
mp-771996,1.1775,Li3Mg2Fe19O32
mp-779689,3.7337,H3N
mp-7604,3.5817,Mg3NF3
mp-752798,1.8398,CeTh2O6
mp-20606,1.3467,Tb3In5S12
mp-780859,0.9772,Ti3V2Ni(PO4)6
mp-761495,4.5274,Li2Ni(PO3)4
mp-985610,1.6808,NaAg(CO2)2
mp-24452,6.3796,CaP2H6O7
mp-768071,0.3482,Li5Mn17(SiO16)2
mp-10776,1.0116,K2Sn(AsS3)2
mp-4875,3.2909,GdTaO4
mp-6442,5.3198,LiAl(Si2O5)2
mp-29558,2.3,Bi3ClO4
mp-761825,1.3946,LiSb(TeO4)3
mp-776172,0.3572,AlCuO3
mp-1018100,0.9179,AlSb
mp-768572,4.124,YAl3O6
mp-556609,2.2759,KSb(PS3)2
mp-764357,1.7873,V2OF5
mp-722397,5.4433,MgP2H12O11
mp-27849,0.5597,TiBrN
mp-706235,3.0254,NaCa2V3Zn2O12
mp-559549,1.8387,K2LaNb5O15
mp-23763,2.319,SnH8(NCl3)2
mp-28252,2.5334,Ba5(GaS4)2
mp-693340,4.1775,Al4Zn4P8H13N3O32
mp-759312,5.6661,MgSiH12(OF)6
mp-559872,5.6041,SiO2
mp-773164,0.9836,Gd2V2O7
mp-30119,3.3566,Cs3AsO4
mp-17889,5.0468,KNa2(PO3)3
mp-759883,2.9753,BiOF
mp-559135,5.229,Na2MgH8(SO6)2
mp-773455,2.6054,V2SnO7
mp-555980,4.8082,Ba2Zn3(PO3)10
mp-568802,1.7641,KBi(PSe3)2
mp-570194,5.6037,Ca(BH4)2
mp-558828,2.3377,K3Nb3(BO6)2
mp-27703,1.9953,InBrO
mp-571184,1.6912,CuMo3Br7
mp-775437,1.164,V3P6WO24
mp-37829,1.3177,La5TlSe8
mp-14482,1.6389,SrNb6O16
mp-755116,2.0492,In2Pt2O7
mp-759767,0.6401,LiCu(PO3)3
mp-776444,3.1523,KLiTi2(PO5)2
mp-989594,1.0971,Cs2NaGaH6
mp-675199,2.0519,NaPrS2
mp-6592,2.1166,K2Pt(NO2)4
mp-777804,3.4886,LiFeF4
mp-9726,7.5245,SrBeF4
mp-27456,4.3731,BaBr2
mp-752475,2.1167,Rb2Ga2Ge3O10
mp-571146,2.5129,SnICl
mp-556890,3.5717,BaNaCr2F9
mp-762863,0.9562,Fe3OF5
mp-560014,1.7722,Pr3CuSnS7
mp-579560,1.9837,Cs3Sb2Br9
mp-542200,0.6419,CdAg4Ge2S7
mp-560740,1.6741,La2SnS3O2
mp-767692,2.1063,Li2VF6
mp-720912,0,KZnH4Br3O2
mp-12630,2.8707,MgSeO4
mp-772660,1.7965,NbCrO4
mp-18932,3.616,LiPr(WO4)2
mp-768267,1.9695,HoInO3
mp-43068,3.3353,Na3Al3Si3AgBrO12
mp-559129,3.1147,Li3Er(NO3)6
mp-780146,1.3946,Fe3(OF2)2
mp-850397,1.2826,Li4Cr2Fe5O12
mp-19019,2.178,NiMoO4
mp-6813,5.2354,KCa10(PO4)7
mp-28574,1.4532,KPbO2
mp-561455,1.3951,Ba8Sb6S17
mp-977164,1.9597,Li3H3N2
mp-8880,1.9714,AlP
mp-744713,2.2696,NaFe3P2(H4O7)2
mp-989527,2.8096,Cs2NaNF6
mp-16164,5.1097,Dy3Si3O10F
mp-775262,0.786,Fe5O3F7
mp-11643,1.791,K2Mg(PSe3)2
mp-18915,2.4574,LiCoPO4
mp-29901,1.4415,Rb2Cd3Te4
mp-764745,1.8524,Fe4OF7
mp-556356,4.7045,Na2SrAl4(SiO4)4
mp-23958,5.368,YH12(ClO2)3
mp-568333,1.1709,K2SnBr6
mp-745180,3.1463,CrH6SO7
mp-18065,7.003,BaCaAlF7
mp-9200,0.5646,K3AuO
mp-555435,1.6238,S4IN3Cl2
mp-753673,2.3145,BiOF
mp-604273,0.6106,Cu2GeP2(H5O7)2
mp-648,2.4399,Na2S
mp-780164,2.7228,Na6Co2C4SO16
mp-867168,0.6326,Sr2SbAu
mp-676855,1.9491,In(HO)3
mp-715438,0.5714,Fe3O4
mp-581403,6.9762,K3Na4Si3BF22
mp-3486,0.2653,KSnSb
mp-27878,2.6822,NaSb5O8
mp-625654,2.0789,TeHO3
mp-15066,4.7806,LiTmSiO4
mp-1016092,2.6752,Re2O7
mp-18737,1.7533,Nd2NiO4
mp-27716,1.1727,KTlO
mp-977368,0.7321,K2Dy4Cu4Se9
mp-19082,2.5256,TiMnO3
mp-38487,1.8615,Li7BiO6
mp-29761,2.2629,UCO5
mp-21332,3.2816,LiGdO2
mp-9789,3.078,CaPS3
mp-756436,1.2102,FeO
mp-29911,0.3372,Ba3Sb2O
mp-19308,3.71,Li2NiO2
mp-680333,1.2221,Ge4Se9
mp-504876,0.9576,Hg19(As5Br9)2
mp-773667,2.3693,Ge2N2O
mp-997035,0.7902,CuO2F
mp-721252,1.3659,Li10Sn(PSe6)2
mp-6942,1.1167,Ho2CdS4
mp-555646,3.4075,BaH4(CO3)2
mp-568522,2.0166,In3SnI5
mp-763784,0.954,LiMn2F6
mp-27917,3.696,Ca3SiO5
mp-675625,3.0468,KNO3
mp-735586,2.2587,KFe2H(SeO3)4
mp-556438,3.4945,KNaSmNbO5
mp-560605,1.6581,LiLa4AuO8
mp-1000,1.593,BaTe
mp-562569,2.3503,CsPPbS4
mp-620325,0.0898,CoCu2(BO3)2
mp-24456,2.2785,SrH2N2O5
mp-850225,2.0733,FeP6(WO8)3
mp-28701,1.7828,CsSbS6
mp-2371,1.0068,Ga2Te5
mp-19259,3.5419,Sr4Al6WO16
mp-778680,0.5772,Li5Mn8(BO3)8
mp-775134,0.4825,MnV3(PO4)4
mp-758899,2.1568,Sb2OF8
mp-20027,0.4336,FeP2
mp-776205,1.2333,Hf2N2O
mp-778102,6.6615,BaYF5
mp-31362,5.1851,Na3YCl6
mp-7786,1.6987,CsCu3S2
mp-624,2.6454,B6As
mp-555650,4.1926,NdSeClO3
mp-7939,0.5135,NaNbSe2
mp-761573,4.1004,Li4Mn(PO4)2
mp-504506,3.9721,RbIn(MoO4)2
mp-629082,1.288,Ba3MoN4
mp-752677,3.215,Ba2YBr7
mp-6456,3.386,LiNbGeO5
mp-676643,0.4067,Ba2NF
mp-776213,2.0237,Hf2N2O
mp-704210,1.7412,Mo(PO4)2
mp-777453,3.1429,LiVF6
mp-759766,1.8876,Bi25BO39
mp-758289,1.6211,Th4Ta18O53
mp-567722,1.9854,Ca7NbSi2N9
mp-559062,5.2363,KP(OF)2
mp-706608,6.622,KPH3O3F
mp-18002,3.9144,KLi3GeO4
mp-554724,1.7068,CuP4S3I
mp-24818,4.8943,LiBeH3
mp-557997,4.2341,CaSeO3
mp-561179,2.2566,Ba2CuIO2
mp-756919,3.6575,Mg3(AsO4)2
mp-29104,2.587,Ti3Zn2O8
mp-9306,0.7346,Sr2ZnN2
mp-771298,0.5522,Li4V3Cr2Co(PO4)6
mp-778460,4.241,Li3Bi(PO4)2
mp-1443,3.1504,Sn3F8
mp-41283,0.9548,BaLaTaMnO6
mp-6721,0.399,Sr3LiRuO6
mp-5986,1.7322,BaTiO3
mp-18997,3.4115,LiMnPO4
mp-622930,0.4417,Ba4In6O13
mp-3196,3.4559,NdGaO3
mp-780049,3.2023,LuTa7O19
mp-558934,1.1793,Hg3ClO
mp-29204,3.2238,P4(S2O)3
mp-769550,0.4141,Li2Mn5(FeO6)2
mp-9915,1.1647,LiBeP
mp-755887,2.4295,La2S2O
mp-19398,2.0861,FeAsO4
mp-554264,2.3737,Ba3Tb2(PS4)4
mp-18532,2.1575,HoPS4
mp-554826,5.1502,Pr3Si2ClO8
mp-706579,4.4839,KH3(SeO3)2
mp-557807,2.1812,CsK2AuO2
mp-27608,1.2807,Be4TeO7
mp-22449,0.3111,InCu(PSe3)2
mp-556761,3.996,Ba5As3ClO12
mp-40204,3.1569,KZrTl2OF5
mp-626506,2.7884,NaHO
mp-752414,3.3006,Tb2TiO5
mp-760319,2.5488,Bi5O7F
mp-769542,0.2357,Na5Cr2As(CO4)4
mp-669375,2.8124,Gd3B2(O2F)3
mp-752983,2.2668,CeZr7O16
mp-753755,2.143,Bi3O4F
mp-769500,0.9376,NaMnPCO7
mp-4618,3.6361,Rb2SeO4
mp-28912,1.6256,MnInBr3
mp-28075,3.227,K2Ti2O5
mp-755776,2.531,Rb4SiO4
mp-554164,4.2923,KLiZnP2O7
mp-645962,4.1737,La4B14O27
mp-540635,2.7734,BaSn(GeO3)3
mp-768490,4.1958,Bi2(SO4)3
mp-673071,3.7115,Li2SnP2O7
mp-558431,0.6765,LiCu(PO3)3
mp-629443,0.2261,Li2EuGeS4
mp-776201,0.9216,Zr2N2O
mp-558229,0.7226,La10S19
mp-998605,2.3804,RbPbCl3
mp-774349,2.837,Li6MnFe5(BO3)6
mp-2892,3.0973,BaNd2O4
mp-758844,0.853,Li3CuSiO4
mp-647096,1.0476,Gd3S3N
mp-721586,5.0579,BaSi2(H3O4)2
mp-677103,6.6664,RbHF2
mp-570985,1.9049,SiC
mp-27210,2.7665,RbTlF4
mp-759825,2.5742,BiOF
mp-850511,1.8934,LiFeO2
mp-772898,3.2132,AlGaO3
mp-850229,0.8461,LiV2P4(HO8)2
mp-557154,2.7914,NaGaO2
mp-540996,3.9956,NdGeBO5
mp-756086,1.5787,Li5BiS4
mp-22303,2.261,Rb3InS3
mp-6122,3.73,Ba2NdSbO6
mp-3782,3.1591,Nd3Sb5O12
mp-680153,2.3594,CdI2
mp-555112,1.5229,Li2CrF6
mp-770729,2.5833,Li2AlFeO4
mp-10973,1.0807,K2Ga3CuSe6
mp-780237,0.7739,Li3Cu3(PO4)2
mp-2352,1.8735,Na2O
mp-27293,1.8287,Tl4HgBr6
mp-774763,2.144,Ti3Sb2(PO4)6
mp-559676,0.4176,SnS
mp-8794,2.1728,K4UO5
mp-603612,2.7679,TiP4H8N2O13
mp-759028,3.2481,Li3Sb3(PO4)4
mp-772779,2.9136,Ca(SeO3)2
mp-6113,3.1668,LiTiAsO5
mp-13596,5.695,K2ZrF6
mp-706632,2.6678,H15RhBr3N5
mp-622197,2.1952,Cs2PtS6(O3F)6
mp-19034,3.3085,Mg3V2O8
mp-18100,1.5871,Na6Ge2Se7
mp-559142,5.2922,KLi(PO3)2
mp-707977,5.5406,AlPO4
mp-777595,3.395,LiFeF4
mp-772160,2.1847,SrLaI5
mp-560973,5.4387,SiO2
mp-556041,4.5238,Ba2NiF6
mp-757551,0.2524,Li3Sn3(PO4)4
mp-556834,0.5768,RuCl(OF3)2
mp-18893,1.4377,Ca2Mn3O8
mp-27888,3.8979,Zr3GeO8
mp-754065,0.5166,Hg(SbO3)2
mp-15541,5.1362,KNa2Si12(BO10)3
mp-867943,2.6315,Na3H7Os
mp-866695,2.3069,ReTeSeCl4
mp-18691,0.2661,Rb2Ni3Se4
mp-755382,2.1209,BiSbO3
mp-626151,4.0477,YHO2
mp-769266,4.1056,Ca3Ta2O8
mp-768143,3.2705,NaGePCO7
mp-757256,3.2694,ZnH4(IO4)2
mp-772282,1.9473,Sb4I2O5
mp-17308,4.6376,Tb2Si2O7
mp-27288,0.9089,RuXeF7
mp-989526,3.8235,Cs2KTlF6
mp-773146,1.1589,Li2CuPO4
mp-35759,5.0864,Li2NiF4
mp-504353,4.6591,LiSb(PO3)4
mp-558102,4.7069,KLiSi2O5
mp-1990,1.431,Mg3As2
mp-7475,1.0342,La2S3
mp-5391,4.4973,Mg2SiO4
mp-772798,3.36,BaLa2O4
mp-29198,1.0192,Na5AuSe12
mp-769228,1.6246,Cs5YO4
mp-849433,3.9344,SrTiH4(OF3)2
mp-558199,1.6217,CuAs4S3Cl
mp-768140,3.5024,Na2BiPCO7
mp-9228,2.546,HgSeO3
mp-28202,3.6478,K3NO4
mp-23674,4.2532,NaH4BrO2
mp-779156,1.945,CdSeO4
mp-556503,5.2446,LiH3CO3
mp-996962,0.5349,LiAgO2
mp-27692,5.1593,BaB4O7
mp-774186,2.2968,LiVP2H5O9
mp-4423,2.7473,La2Ti2O7
mp-5004,1.5382,Na2B2Se7
mp-31275,1.1543,Ba(TeP2)2
mp-13946,6.6345,Rb2ZrF6
mp-8877,3.3444,Sr4Al6SO12
mp-720861,4.9359,H13ClO6
mp-1019744,4.3747,K2Al2Si3O10
mp-554006,4.4798,SrCaSiO4
mp-17322,0.3988,SrCu2SnS4
mp-567734,2.3859,AlAs3(SeCl)4
mp-769631,0.5467,Li2Mn3NiO8
mp-33932,2.6175,NbHO3
mp-17235,5.0924,Sm2Si2O7
mp-560334,4.5993,NaAlSiO4
mp-554141,3.3125,Ca3SiO5
mp-557805,0.7638,MnBiS2Br
mp-12193,2.9231,Nd2Ti2O7
mp-770799,3.913,Li5NbO5
mp-8810,3.9634,SrZn2(PO4)2
mp-556515,3.9252,AsSOF9
mp-735022,5.2009,SrPHO4
mp-743607,1.6181,Li2Ti4Co(PO5)4
mp-690541,2.5222,Tl2SO3
mp-13863,3.5407,BaGeO3
mp-30013,1.2591,SbKr3F11
mp-643384,3.9362,BaHIO
mp-15225,4.8267,Nd2Si2O7
mp-570838,0.4599,CdHg4(AsI2)2
mp-703253,0,RbFeSe2O7
mp-774146,0.8939,W(BrO)2
mp-765406,0.7101,Nd2NiO4
mp-42227,4.1539,Cs2ZrTlOF5
mp-13356,3.1297,Ba2SrTeO6
mp-690495,1.0029,Fe5SnO8
mp-23053,2.6516,PbICl
mp-557381,0.5334,Rb3U3Ge2O13
mp-510545,5.2395,K2BeH4(SO5)2
mp-541156,3.1985,Ge4PbO9
mp-677716,1.8815,RbAl3Cd(SiO4)3
mp-19318,1.8721,Ag2MoO4
mp-781051,0.2919,Li5V2Ni3O10
mp-14734,6.1156,CsCOF3
mp-696983,4.9365,KGaH4
mp-8717,1.1227,Rb2MnSe2
mp-757788,0.8599,LiNb(PO3)4
mp-694868,2.4234,Rb2ZrFe(PO4)3
mp-541433,2.7121,Cd(BiO2)2
mp-31352,3.9208,Er2(SeO3)3
mp-757197,4.0231,DyY3O6
mp-543011,2.0396,ZnS
mp-764224,2.445,Li2V2O5F2
mp-22551,1.7729,UP2(PbO5)2
mp-7535,4.7971,Li5AlO4
mp-1019534,3.6891,BaAl4O7
mp-770907,2.4647,Gd2W2O9
mp-19378,1.6688,CrAgO2
mp-769390,4.2126,Ca3Ta2O8
mp-18765,2.6239,Na2NiO2
mp-19315,2.1988,Sr2MnWO6
mp-778509,2.6114,LiVF3
mp-754768,1.3984,Tb2Pt2O7
mp-777488,3.9819,Li3FeF6
mp-754462,1.0068,SbTe2F6
mp-777624,1.551,Li9V3(WO4)7
mp-759680,3.6451,LiSi2BiO6
mp-557802,4.6976,K2Be(Si2O5)2
mp-775820,0.9737,Ti2N2O
mp-559655,5.7734,PNF2
mp-677164,2.2101,CuAs2Pb6Cl7O6
mp-763002,1.2379,Fe4O3F5
mp-766238,1.6015,Zr2N2O
mp-23837,4.2178,NdH3(CO2)3
mp-1020013,5.536,Li2S2O7
mp-778086,6.4213,Ba3Y2F12
mp-639682,5.6453,SiO2
mp-649470,3.4786,K3Nd2(NO3)9
mp-768422,4.8209,TmHO2
mp-8963,2.1558,Cs2HgF4
mp-759759,4.1916,NaGa3P2(HO3)4
mp-764589,1.7517,LiFe2(BO3)2
mp-558099,1.6746,Nb2Tl5S4Br9
mp-28069,1.8384,Ca3AsCl3
mp-755511,1.6861,Y2Hg2O5
mp-18084,3.0506,BaTb2ZnO5
mp-12904,0.9108,HoAgTe2
mp-568293,1.3008,Ca3N2
mp-740731,4.6404,Al2H12(SeO5)3
mp-770950,1.7101,LiLa4MnO8
mp-643898,5.7013,CaP2H2O7
mp-16804,5.1801,LiCaPO4
mp-541626,2.3239,K3Nb3Ge2O13
mp-774364,2.5126,LiCrPO4
mp-773454,1.4066,Li5CoO4
mp-567486,4.1542,BaSr2(PN2)6
mp-504802,4.3729,MgH12S2O9
mp-626062,1.9999,U3(HO5)2
mp-27687,1.656,LiP7
mp-756686,2.6071,AlGaO3
mp-772049,3.7604,Li2Ti2O5
mp-554856,4.4186,Na2Si2O5
mp-29337,1.3684,Tl3BS3
mp-28242,1.8016,Tl6SCl4
mp-989548,3.6388,Rb2NaTlF6
mp-20742,0.3783,EuPSe3
mp-37381,5.4437,SmOF
mp-745166,3.5417,Sr2Fe2H2OF10
mp-505727,1.964,NClO
mp-757747,2.8045,LiSn4(PO4)3
mp-19123,3.9675,Rb2LiVO4
mp-13827,6.0657,Ca(BO2)2
mp-765781,1.7843,LiVF5
mp-560323,3.4288,H11C4NO10
mp-1009733,0.5848,Ca2Si
mp-707055,3.0947,Na2GeH12S2O7
mp-560105,3.7626,K3Ho(SiO3)3
mp-722980,2.057,Hg4HN3O10
mp-6356,1.0421,Cd2GaAgS4
mp-23331,3.8981,Si3(BiO3)4
mp-322,0.736,TlS
mp-667291,1.4154,ReHg2O5
mp-768257,0.3471,Na4Bi2C4SO16
mp-23911,5.2064,MgH20S2(NO7)2
mp-27747,0.9081,PdI2
mp-6250,3.0535,BaTm2ZnO5
mp-767740,2.3141,V(PO3)3
mp-557420,4.8697,KBaB5O9
mp-677638,4.7813,Na27Ca3Al5(P2O7)12
mp-680197,2.9337,KAgC2(SN)2
mp-976181,6.588,NaBH4
mp-721753,3.2366,CsH7(C2O5)2
mp-23222,0.3607,Li3Bi
mp-756281,5.7744,TmAlO3
mp-24831,3.726,DyH4I3O11
mp-705541,1.1466,V10O9
mp-770839,3.011,LiCr(CO3)2
mp-866301,2.3688,BaBSbS4
mp-771050,0.3578,Li7MgNi7O16
mp-705562,1.4745,Mo4P5O24
mp-571642,5.5969,CaCl2
mp-17832,4.9959,RbBaPO4
mp-16180,2.9764,Na6S2O9
mp-556983,3.2033,LaGaO3
mp-6951,3.1745,RbCdF3
mp-779056,3.9622,Li2FeP2O7
mp-560365,3.3602,Rb2Zr(IO3)6
mp-570168,3.6395,Rb2ZnBr4
mp-776274,0.4723,Na5Bi2As(CO4)4
mp-764885,1.2663,LiFe8(BO3)8
mp-540773,2.5192,Ca2GeS4
mp-755420,2.9068,SrSm2O4
mp-3143,4.9638,Na2SO4
mp-22968,5.4505,NaClO4
mp-3323,3.2114,SrZrO3
mp-625789,2.2086,Sn3(HO2)2
mp-28477,5.2513,Sr(ClO3)2
mp-542435,2.2441,Li3ScN2
mp-561499,1.4824,Dy3CuSnS7
mp-30981,3.0704,Te(HO)6
mp-762671,0.6584,Mn2(CO3)3
mp-781049,1.4506,V4OF11
mp-23922,4.1598,HN
mp-634657,3.1577,NaHS
mp-755054,1.4514,Ti3N2O3
mp-10960,0.7039,Tb2Ti2S2O5
mp-766350,3.0303,LiSiBiO4
mp-32959,5.2801,H2O
mp-754408,3.0364,Ba2SrI6
mp-558941,5.1083,LiYSiO4
mp-768095,0.5907,KV13O20
mp-770805,4.2889,Li6Hf2O7
mp-638236,2.8242,OsC4(ClO2)2
mp-20217,0.7567,EuPS3
mp-867528,2.7924,Ge7H8N2O15
mp-861914,0.8074,Ba3Co(CN)3
mp-707734,3.1718,AsHPb4(ClO)4
mp-777292,3.7772,Ba3Y2Br12
mp-17337,3.71,RbAsOF4
mp-755205,1.7211,Zr2N2O
mp-767222,1.6044,LiFe2(PO4)2
mp-769404,1.822,YSeO3
mp-583193,1.8309,Cs3PSe4
mp-556679,4.3828,Na2Ca3Si3O10
mp-10835,0.9731,RbSm2CuS4
mp-28334,1.4648,Tl4SiSe4
mp-15433,0.9069,K2Ga2Sb3
mp-29489,3.5478,P4SeO7
mp-556100,1.9026,Si(Sn3O4)2
mp-720461,4.9847,P3H22C3N9O11
mp-770589,2.346,Li3Al2FeO6
mp-769048,2.0938,Li3NbS4
mp-770581,0.5349,MgMnO3
mp-569512,1.5838,SbICl8
mp-753605,0.9218,LiCuS
mp-768084,0.8115,Li8V11O22
mp-643776,3.0284,Na2ZnH4(SeO5)2
mp-29287,0.7029,Cs3CoBr5
mp-776715,3.377,Li3Fe2F7
mp-734123,5.3296,RbSrP3(HO2)6
mp-698587,1.6984,TiNiO3
mp-19287,1.9872,NaV(SiO3)2
mp-774382,3.8069,Li2MnF4
mp-759472,1.4109,LiCu(HO)4
mp-770092,5.292,HfP2O7
mp-767341,4.4398,Li2ScPCO7
mp-758658,4.8122,CaAl2(SiO4)2
mp-510608,0.327,ZnCuAsHO5
mp-22750,3.22,P2Pb3O8
mp-17929,1.4832,RbHo2Cu3S5
mp-675214,3.8614,Rb2Bi3F11
mp-756443,2.998,Er2TiO5
mp-706367,5.2022,KCaP3H4O11
mp-3318,6.6745,Na2BeF4
mp-37859,1.7496,Sr(PrSe2)2
mp-28520,0.5919,Rb2SnTe5
mp-756715,2.8691,Gd3InO6
mp-28728,0.639,K6Sn3As5
mp-768906,4.4876,YBrO
mp-570823,1.715,Ba(BSe3)2
mp-14484,5.2973,KNaLi2(SO4)2
mp-862631,0.629,Ba2SbAu
mp-720379,4.5405,K3NaP4(H2O7)2
mp-9270,1.0356,SbIrS
mp-4453,1.6265,TlNO2
mp-559927,0.8679,Tb2Cu(BO2)8
mp-682284,0.6833,Zn3In2O6
mp-555369,0.6365,SrCuH6O5
mp-3889,4.1074,NaBO2
mp-29597,2.1399,LaBN2
mp-17441,2.311,Mg2GeS4
mp-556094,1.0821,AgBiSCl2
mp-758201,0.2148,LiTiP2O7
mp-530984,3.595,Al22PbO34
mp-560189,3.9495,NaLi2BO3
mp-9610,3.7218,Li2CN2
mp-769532,0.0707,Na4V2C4SO16
mp-585266,0.182,MnP2O7
mp-23550,3.1322,KBrF4
mp-561886,5.4927,CsNd(PO3)4
mp-675436,2.5237,Sm2Zr2O7
mp-555159,3.5619,Pr2O3
mp-762248,2.8456,LiSb3(P3O10)2
mp-776502,2.671,LiTi2(PO4)3
mp-767279,4.7848,Li2DyPCO7
mp-15939,4.6512,SrAl2B2O7
mp-1018097,2.1413,BaCaO2
mp-23980,3.7332,Cs3H(SeO4)2
mp-530429,5.5173,YZr3F15
mp-554371,5.3874,CaSiBHO5
mp-770891,0.7115,Ti3Cr3(SbO8)2
mp-744081,2.0548,K6W2N4O3
mp-753794,4.8841,Hf2P2O9
mp-567777,0.2275,La9Sb16Br3
mp-669357,2.3545,CdI2
mp-21560,0.4526,CuAs2PbO7
mp-780274,1.9786,Hf2N2O
mp-626721,3.3443,RbHO
mp-18838,1.5128,K2MnSO4F3
mp-12262,6.645,CsBeF3
mp-16934,4.4332,BaLaAlO4
mp-684816,2.3831,K2NaNb(OF2)2
mp-559931,1.5498,VF3
mp-567702,1.1342,CsReCl4
mp-554280,4.5637,RbTh2(PO4)3
mp-23008,2.617,PbBrF
mp-30979,2.3218,GaPS4
mp-978093,2.4862,Ho2S3
mp-557498,0.8754,NaBi2AuO5
mp-33432,1.7022,Mg(FeO2)2
mp-4971,1.4545,K4Sn3Se8
mp-768961,5.2604,YB5O9
mp-14871,3.4034,Li16Ta2N8O
mp-780157,2.3469,LiFeH12(SO7)2
mp-780314,0.9942,Li3V2P4(HO8)2
mp-600051,5.5708,SiO2
mp-18101,1.7876,K2Cd3S4
mp-696949,3.6018,Li3TeHO4
mp-541495,5.3528,KY(PO3)4
mp-555482,5.8343,KZrH2OF5