id,formation_energy_per_atom,pretty_formula
mp-755027,-1.986429014,In2Sn2O7
mp-1018154,-0.1209215,Hf2Hg
mp-555418,-1.851463459,Rb3NbH4(C2O5)3
mp-754991,-1.764996028,Ga3NO3
mp-756198,-1.455195736,Li14Mn2S9
mp-998945,-0.329686356,TiNi
mp-767722,-2.517268688,VFe(P2O7)2
mp-976768,0.105500331,NaMg3
mp-861912,-0.528895897,TaTiTc2
mp-29199,-0.472345854,BaCuN
mp-707981,-2.330665895,Y4H9NO13
mp-28781,-4.128188311,PrZr3F15
mp-556639,-3.592336328,DyNbO4
mp-28025,-1.91366659,Sn2SO5
mp-23376,-0.486762818,GaSeBr7
mp-669566,-0.147732374,ZnAu3
mp-573751,-1.48404462,AlTeCl7
mp-510549,-0.529942884,K3B12H12Br
mp-20952,-0.492181919,TiNiSb
mp-715333,-1.719503912,Fe7O8
mp-706664,-0.167761623,B10H13
mp-585265,-2.559920109,LiMo2(PO4)3
mp-554144,-3.027407603,K3Mn2F7
mp-999303,0.885212881,PdN
mp-778450,-3.824026328,LaSmO3
mp-697664,-2.473516795,LiCr4(PO4)3
mp-28103,-1.533687898,USCl9
mp-762258,-2.062468567,Na2Sn4O9
mp-3664,-1.786279321,NdTlS2
mp-30003,-1.441186922,AuSO4
mp-605694,-1.756877801,NdH12S2NO12
mp-694999,-2.678995426,Na3V2P2O10F
mp-1001789,0.543787721,IrC
mp-557955,-3.27921419,Ca3Al4ZnO10
mp-778224,-3.226585788,La4CoO8
mp-979040,-0.400549537,TmAl3
mp-389,-0.539226611,SiPd
mp-12100,-0.838994778,Lu(SiNi)2
mp-2554,-0.28790518,Al3V
mp-768223,-2.69086638,Cs2CeO3
mp-3828,-3.462592439,BaAl2O4
mp-1006058,-2.530470208,UCd2O5
mp-760637,-2.509864151,LiBiP2O7
mp-29661,-0.683863229,Si5Pt6
mp-1013542,0.6623751,Ca3BiN
mp-22191,-0.546614407,HfFeGe
mp-1875,-2.408208599,TeF6
mp-31179,-0.427123087,Ho(Al2Fe)4
mp-13138,0.006261771,Cu3Sn
mp-971836,-0.204999745,Zn2NiIr
mp-11269,-0.639371857,BaSn3Pd
mp-15335,-2.673921054,Lu2Cu2O5
mp-1018106,-0.830051768,YbBiPt
mp-30186,-0.087122835,Ba3Si23
mp-6753,-3.126431758,Ca5Si2C2O13
mp-6560,-2.335281657,KSO2F
mp-760372,-3.156812779,Na5Ti12O24
mp-2826,-2.448293851,Lu2S3
mp-12754,-1.223809485,ThPt
mp-554801,-3.379327526,Ca3Nb4(O6F)2
mp-1936,-0.549810145,TaAs
mp-961715,0.145395797,HfPtPb
mp-759868,-2.438088186,Li3Sb2(PO4)3
mp-764852,-2.75413653,V6O5F19
mp-1143,-3.446207137,Al2O3
mp-867821,-0.275246894,TaTiMn2
mp-560600,-2.164387772,CsNiPdF5
mp-768146,-2.623621476,Na2AlPCO7
mp-5238,-0.91151316,GaCuS2
mp-4311,-0.584061762,HoAgSn
mp-625993,-1.33180889,Te(HO)6
mp-780326,-0.852038511,Ni(IO3)2
mp-567978,-1.241239568,Pa3P4
mp-2337,-0.3680324,HfCo2
mp-626973,-2.129960077,Ba(HO)2
mp-30410,-0.082002323,Mn2Au5
mp-1013716,-0.307729534,Ba3BiAs
mp-556521,-1.588565695,KNa7Pb2O7
mp-6077,-2.61418557,Ba3SmRu2O9
mp-540258,-2.730111325,Ti(PO3)4
mp-6281,-2.58786913,NaCa3RuO6
mp-8281,-0.643016046,Ba(CdAs)2
mp-10359,-0.330318917,Zr(CoGe)6
mp-17945,-0.338306178,RbPSe6
mp-23004,-2.309640479,CsMgCl3
mp-6150,-3.137041973,Na4Zr2(SiO4)3
mp-9849,-0.539042166,SmP5
mp-23137,-2.830302302,Ba2YBiO6
mp-24423,-1.444805985,SrHBr
mp-28205,-2.164137041,Na3ReO5
mp-542974,-1.447377504,K3Nd(PS4)2
mp-8720,-0.742780197,Rb2MnTe2
mp-20467,-0.492049845,PuB4
mp-760678,-2.181708448,Sb2H4AuF16
mp-631540,0.741608078,NiBTe
mp-542342,-0.485724223,Dy5Ga3
mp-24204,-1.168388068,CaHI
mp-3923,-1.536305551,Th2MnN3
mp-773709,-1.599125959,Li3Fe(NiO3)2
mp-8057,-3.394499185,Ti3O5
mp-557855,-2.928041761,CaGaBO4
mp-554702,-3.55854726,NaZr2NiF11
mp-1008785,-1.284583102,RuO2
mp-567517,-0.748681418,Er5(CoTe)2
mp-9427,-3.118637555,NaYP2O7
mp-24505,-1.978363259,MgAl2P2(HO)18
mp-17734,-3.117598362,SrHo2CuO5
mp-541291,-0.54056339,Na3MoN3
mp-20264,-0.452167334,Tb(FeGe)2
mp-972051,-0.756706746,YbGa2Pd
mp-9812,-1.838492567,ZnCO3
mp-699398,-2.521403104,CsMnMo(OF)3
mp-23420,-0.08885591,Ge19(PI)4
mp-642938,-1.739967444,RbCr4BiO14
mp-5767,-3.528009583,DyPO4
mp-777674,-2.877798034,LiFeF4
mp-5403,-2.755413242,Rb2TiO3
mp-762830,-2.611448851,Li4Mn2Nb3V3O16
mp-22447,-0.862856958,Zr3P
mp-975524,0.304796363,InGe3
mp-11344,-3.060316837,PrO
mp-756276,-3.925578277,CeHfO4
mp-631503,0.721318543,ZrAlW
mp-697819,-1.612302328,Fe2P3O13
mp-27632,-1.722538307,K2TcCl6
mp-504908,-1.843765934,In2TeO6
mp-755619,-2.332354927,Sn2P2O7
mp-777668,-2.41502926,Li4Ti3Co3(SnO8)2
mp-17928,-1.52718098,Ba(ErTe2)2
mp-976147,0.030831068,PrEr3
mp-18291,-0.783798757,BaSbTe3
mp-867907,-0.356246062,PuSi3
mp-971794,-0.081824582,YMg3
mp-770501,-1.901833616,Na6SiNi2(CO4)4
mp-866145,-0.686751202,Lu2AgIr
mp-541347,-2.243790836,Er2Au5F21
mp-778949,-2.307637642,Li2CuPO4
mp-971704,-1.052095228,ZnBO3
mp-8398,-3.910027933,CsYbF3
mp-10901,-0.77270088,Al3Pd2
mp-771658,-1.65734976,Li2NiH12(SO7)2
mp-865948,-0.662006748,Ti2ReRh
mp-770682,-2.866540041,Li2Co(Si2O5)2
mp-11991,-0.365830708,Nd2CdNi2
mp-30300,-1.831448981,Cs3As5O9
mp-17435,-0.749546663,Zr4Fe4Si7
mp-557001,-1.88443416,RbSO4F
mp-9793,-2.54614157,Ba3BAsO3
mp-3388,-0.647497225,U(SiRu)2
mp-541742,-1.792988411,Cs3Mo2Cl9
mp-581510,-0.206977709,La4CdCo
mp-695511,-2.742538543,Na2CaTi2(GeO4)3
mp-773646,-1.655200261,InP2H9(NO4)2
mp-866306,-2.472560324,Ba(NdS2)2
mp-778261,-2.623764538,Li4TiMn3Cr2(PO4)6
mp-29711,-0.191357559,Tl2Te3
mp-15547,-2.920882791,Na2ZnGaF7
mp-30317,-0.734638629,Sr2AuN
mp-773843,-3.032408284,LiTi2(PO4)3
mp-20133,-0.826853722,NbCrN
mp-766938,-2.884442583,K3Li2Nb5O15
mp-1019520,-1.175835311,Ba3Ca2(SiN3)2
mp-669913,-0.462927146,Sr2Pb3
mp-29114,-0.7032004,Re3Te4Cl5
mp-606393,-1.503990205,NbBr3O
mp-622183,-2.003560608,Co2PClO4
mp-764732,-2.10771596,LiCo2(PO4)3
mp-541940,-0.340126888,Cr6Si7Ni16
mp-2044,-0.354122065,Zr5Al3
mp-17273,-1.535627191,Ba(HoTe2)2
mp-753387,-2.185764318,Li2Cu3F8
mp-560631,-3.355556592,KUSi2O7
mp-972493,-0.118175066,Sm2MgRu
mp-27773,-1.076702205,H5IO6
mp-9783,-2.710978447,Ba3(AsO4)2
mp-2359,-0.701074505,NdPt5
mp-770111,-2.410533364,PrBiO4
mp-570504,-0.976372158,Yb11InSb9
mp-5219,-0.725759275,Ho(SiOs)2
mp-6316,-3.303447656,Er4Si2S3O7
mp-3810,-1.491741059,Hg(AsO3)2
mp-20354,-0.19644826,MgMnGe
mp-23415,-0.157210639,TlFeI3
mp-1934,-0.212099113,LiZn
mp-978853,-0.643284394,Sr(GeIr)2
mp-31056,-1.074149383,Dy3InN
mp-10103,-3.985118326,LiYbAlF6
mp-754613,-2.813455053,K2ErPCO7
mp-16290,-0.056385817,ZnNi3C
mp-31069,-1.978185293,P2Pb8O13
mp-1753,-1.402082568,ThAs
mp-753920,-3.440353305,Tm2SeO2
mp-556719,-3.164813727,K2Ti(SiO3)3
mp-780116,-2.458134748,Mn6O5F7
mp-706937,-0.171937482,B9H11
mp-27810,-0.507607522,Ba(GeAs)2
mp-651706,-0.630886593,Cu6AgBi12PbS22
mp-569843,-0.816775007,MnBr2
mp-10970,-3.338300924,LiErO2
mp-555990,-3.498618848,Er2SiSO4
mp-30701,-0.475951144,Sc3(Ga3Fe)2
mp-766204,-0.963451351,ZnPH5C2N4O3
mp-2833,-0.834737087,IrS2
mp-14052,-3.097487716,Ca3In2(SiO4)3
mp-17914,-2.523934324,CaGa4O7
mp-13189,-2.019079864,SrLuCuS3
mp-5410,-0.421321428,SmCo3B2
mp-971868,-0.306781901,TmMgAg2
mp-14363,-2.116545521,Rb2LiAsO4
mp-777675,-2.426142372,Li3V5O12
mp-682592,-2.074968744,K2Ca2C2O3F2
mp-10783,-1.721032581,RbHoSe2
mp-961702,-0.663711233,LaSbPt
mp-16699,-2.823320213,Li6Gd(BO3)3
mp-20303,-0.388045652,LaIn4Ni
mp-779789,-2.496307396,Li4Mn3Fe(BO3)4
mp-504894,-1.543456577,MgH12SeO9
mp-29755,-3.308189972,CaSi2O5
mp-554959,-2.553494123,K2Al2Sb2O7
mp-771388,-2.395228377,MnP2O7
mp-568090,-0.379319132,LaBC
mp-14304,-2.277133144,Lu2MgS4
mp-781605,-1.350310746,Co2O3F
mp-4913,-0.554580395,LiGa2Rh
mp-631324,1.094984547,HfMnTl
mp-555117,-1.693882292,Cs2Bi4O7
mp-673655,-0.042679752,Cu9Se5
mp-997026,-0.516326735,CuClO2
mp-1018074,-0.205612373,GaFeNi2
mp-14235,-3.007766773,SrGa2(SiO4)2
mp-560223,-1.992781211,K2Se(SO3)2
mp-8453,-1.268063833,RbNaO
mp-754472,-2.774601861,HoCuO2
mp-554245,-2.856093135,BaPb2IF5
mp-768176,-3.687824082,TmTaO4
mp-769627,-2.499258965,V2CrFe3(PO4)6
mp-554822,-2.492085357,CsSb(PO4)2
mp-504554,-3.461349323,Ba5Ta4O15
mp-17446,-2.926266035,PrPtF7
mp-29722,-0.97500152,Ca11InSb9
mp-22574,-0.015455905,HgP14Pb
mp-542001,-4.081785166,CeF4
mp-864979,-0.364433834,Gd2ReC2
mp-17466,-0.464130743,Hf5Sb3
mp-559847,-0.601950174,Ag5P(S2Cl)2
mp-7770,-0.66970461,Sr(ZnAs)2
mp-769584,-2.189926778,NaMnPCO7
mp-999543,0.057733485,MnCo3
mp-866211,-0.354027825,Lu2CdIn
mp-1791,-0.744672965,Al5Rh2
mp-23666,-0.995378617,AsH8CN3O4
mp-28870,-1.990824142,PRhO4
mp-7228,-1.917208626,ReO2
mp-977058,-2.241624104,NpBO3
mp-10026,-1.17266312,ScTe
mp-569179,-0.049013326,Ni3Mo3C
mp-22646,-0.516949819,InPd2
mp-23714,-0.637092199,SrH2
mp-19004,-2.382886138,Sr8Fe8O23
mp-6785,-3.430212392,K3UO2F5
mp-644226,-1.9801745,BaH2C2O5
mp-561118,-1.13960205,ZnS
mp-867214,-0.672677417,Er2IrRu
mp-776666,-2.406235092,CrFe3Sn2(PO4)6
mp-1683,-1.050894481,ZrSe3
mp-570073,-0.347770808,Np(NiGe)2
mp-510519,-2.461698478,Rb2V3O8
mp-867145,-0.31495272,LiHo2Ga
mp-39025,-3.065133199,NbO2F
mp-21853,-0.53016207,SmIn2Ir
mp-556179,-1.940880365,Pr3Si2S8Cl
mp-6017,-2.566994462,Na3In(PO4)2
mp-572805,-1.173319237,Cs2I4O11
mp-3637,-4.250103832,YOF
mp-754979,-3.856966148,Y3AlO6
mp-39033,-1.941152201,Sr(NdSe2)2
mp-39440,-2.335677784,Ca2MnIrO6
mp-27482,-0.530687485,Ag4P2S7
mp-21288,-0.768639305,La2InGe2
mp-540538,-0.177081067,Ga4Fe3
mp-571054,-0.369521465,Cu2Mo3Se4
mp-3933,-1.126628682,Mg2PN3
mp-707209,-1.533988753,CsH24Rh(SO10)2
mp-759878,-1.590022092,RbMgH12(ClO2)3
mp-754043,-3.230712389,NaLuO2
mp-672657,-0.47238705,Hf6Co16Ge7
mp-656852,-3.400520989,Ti13O22
mp-977462,-0.453546986,ZrCdAu2
mp-780125,-2.290419554,LiCr2P3O13
mp-558377,-1.148008518,B2H12C3(NO)6
mp-10137,-0.440600863,UB2Ru3
mp-14432,-0.45021468,GaTe4(MoSe)4
mp-761,-0.093492487,CeCu5
mp-554061,-0.760981101,MnSbS2Br
mp-22146,-0.528302597,In3Pd5
mp-770892,-2.492821147,VPO5
mp-697242,-0.650538652,H5C2NO
mp-12015,-1.370638706,KAg2AsO4
mp-29693,-1.74455431,Rb2AgCl3
mp-753670,-1.160787799,CaPbI4
mp-862786,-0.350508097,Ac2CuGe
mp-773144,-2.041767579,Mn3V2Cr3O16
mp-962058,-1.439361224,YSeCl
mp-8380,-3.056266102,K2Si4O9
mp-28894,-0.911604453,Ba2P3Pd
mp-28375,-3.18237659,Ta2AgF12
mp-530316,-3.802337107,Dy2TiO5
mp-979938,0.4021067,Yb3Tc
mp-975537,-0.609152598,NdInRh2
mp-770843,-2.437788387,VCrO3
mp-777489,-2.825174035,LiFeF3
mp-1886,-0.230139,TbTl3
mp-676598,-1.431676222,TlPbCl3
mp-17534,-0.777263319,Ho2Ge5Rh3
mp-8930,-0.403222367,K2GeAs2
mp-14988,-1.604704198,K4SnO3
mp-17668,-0.376610303,YbGa7Au3
mp-570548,-1.526402867,NaPr4I7N2
mp-849441,-2.510986228,LiVP3HO10
mp-779989,-3.136401775,Gd2P4O13
mp-1783,-0.94875731,MnS
mp-29488,-1.658692212,Na2ZnO2
mp-583034,-3.693357455,Ba2U2O7
mp-28044,-2.689911249,TmCl3
mp-570646,-1.590964349,Nd4Te3N2
mp-775023,-1.96891301,Li2Fe3SnO8
mp-28194,-1.762826772,BiClF8
mp-540703,-1.181694625,Cs2S
mp-571103,-0.493760364,In5AgSe8
mp-679936,-1.32934666,Er7C2I12N
mp-983555,-0.896648327,Er2PdAu
mp-569159,-0.851972171,Yb8Ge3Sb5
mp-2126,-0.799223552,HfIr3
mp-973334,0.116187335,NaMg
mp-983539,0.076331607,BeAu3
mp-10918,0.053657092,Rb2PdC2
mp-15789,-2.182759622,LiDyS2
mp-764448,-3.013543132,V2OF5
mp-715493,-2.316595573,V4O7
mp-779909,-2.768300688,V6O7F5
mp-425,-0.476137861,GdB2
mp-770489,-2.611773187,Li6Cr3Fe(PO4)6
mp-753000,-1.915762645,NaSb3O8
mp-600023,-3.275011276,SiO2
mp-768288,-1.166736212,Li3FeS3
mp-27187,-3.219615339,Be2TlF5
mp-5126,-1.992975409,ZnSO4
mp-625465,-2.328395323,Tm(HO)3
mp-19457,-2.40713972,V6O13
mp-761602,-1.766751321,Li3Fe(CoO3)2
mp-1009495,1.363451406,OsN
mp-23419,-1.701970836,Sb4Cl2O5
mp-756457,-3.574321664,ErNbO4
mp-11080,-0.722106022,YbMgAu
mp-27169,-3.319276818,KTa5O13
mp-776754,-2.8447428,Li2Fe3F8
mp-30361,-0.047972518,Zn8Ag5
mp-1670,-0.352465172,MnPt
mp-43188,-2.968671103,Na8BeAl4Si7(BrO12)2
mp-996987,-1.439301351,LiCuO2
mp-30724,-0.242797555,ThHg3
mp-13516,-3.272812443,TmAl3(BO3)4
mp-7590,0.058967761,GeP
mp-982065,0.026967103,PrHo3
mp-744240,-2.57826606,CaFe2P3HO12
mp-14383,-2.490952958,KGePO5
mp-684470,-2.545626432,Li3Sn2P5O16
mp-753148,-1.953246151,Li2Cu7F16
mp-776439,-3.946141136,SmTmO3
mp-20995,-1.23274543,Eu4As3
mp-1053,-0.317922416,NdZn
mp-21419,0.023881027,CeMg2
mp-696806,-1.661286556,BaH4(BrO)2
mp-737,-0.706900928,Hf5Ge4
mp-28135,-1.99672288,NbXeF11
mp-720874,-1.554694044,PH5NO4
mp-10804,-3.36315375,NaYPO4F
mp-632810,-0.560236908,Pr3Ga10Ni
mp-760131,-2.262726902,Li2Cu2F7
mp-3108,-1.098456172,Lu(SiRh)2
mp-771579,-2.244044257,Li7W5O16
mp-2955,-3.513183562,NaMgF3
mp-21568,-3.019817822,BaSm2CuO5
mp-30713,-0.224203191,Ho2Zn17
mp-22420,-1.245742398,CuTeO4
mp-715553,-2.420039496,VO2
mp-27577,-0.218776707,Cd2As3I
mp-504355,-2.406989664,Bi(PO3)4
mp-11025,-0.245744073,ZnP2
mp-690515,-1.429709719,K2CoH2(SeO5)2
mp-769499,-3.13653746,LiLa8V8O32
mp-541899,-1.281246021,CsCdBr3
mp-976809,-0.018186039,Ni3S
mp-567638,-0.720315156,TaPt3
mp-38418,-3.807210013,Tm2Ti2O7
mp-22216,-0.943333832,In2S3
mp-762063,-1.072384947,Na4Cu6O5
mp-505311,-2.325925333,Sr2CrCuSO3
mp-975972,-0.078035059,PrLuMg2
mp-650816,-2.818053777,La5V3S6O7
mp-756557,-3.243999949,LiY4Ti4(S2O5)2
mp-961722,-0.032089031,TiBiRh
mp-1019379,-1.142267197,AlB3N4
mp-777418,-2.964280568,Li2FeF4
mp-3657,-0.659838383,TiCo2Si
mp-8462,-0.332000033,Hf3Al2
mp-24303,-1.576228432,Mg3P4H48(NO15)2
mp-772255,-1.999944315,CuPO3
mp-697126,-0.679894223,Ca4(H4Rh)3
mp-19238,-1.047871622,Co(PtO2)3
mp-743511,-2.165544547,CaV2P2(H4O7)2
mp-1959,-3.628008745,PuO2
mp-770539,-2.011018731,Li5Ti2Ni5O12
mp-568411,-0.370921658,Th2Ga
mp-754629,-0.452411102,WN2
mp-11630,-0.519615621,Dy2Al6Si4Pt
mp-999392,0.35132484,NbCr3
mp-5318,-0.10258086,MnCoSb
mp-754824,-3.045908554,SrO
mp-667421,-2.397512282,SrTeO3
mp-675462,-0.572746341,Mo2RuSe4
mp-9257,-0.470773472,Yb(CdSb)2
mp-11367,-0.38262899,DyHg2
mp-18924,-2.623104761,Sr3(FeO3)2
mp-774462,-2.25492208,LiFePO5
mp-753954,-1.295839445,CdCuH8(ClO)4
mp-31817,-2.609306632,Li2Fe(PO3)4
mp-780327,-2.41349807,LiMn3(BO3)3
mp-976893,-0.135754416,Ni3Sb
mp-773588,-3.184044241,Sc6N2O5
mp-975793,-0.330918491,PrTmTl2
mp-27441,-1.003800348,Au2Se4O11
mp-625733,-2.315105851,La(HO)3
mp-2404,-0.327612502,CaAl2
mp-975788,-0.360866684,Pr2AgHg
mp-771762,-2.691238338,Ho3Sb5O12
mp-1939,-0.47941549,ErNi2
mp-14377,-2.774140958,KTaGeO5
mp-20393,-0.820528319,Sr2InPt2
mp-675477,-0.381366395,Sn4Bi2Se7
mp-1019745,-3.216336371,K2Ca3Si3O10
mp-27374,-0.544561179,NaAsSe2
mp-27853,-0.343593165,Hg3(TeBr)2
mp-1236,-0.261885262,NdAg
mp-19735,-2.993002926,La2CuO4
mp-631422,0.677019462,CuSiBr
mp-5861,-0.124428168,Tm2Fe14B
mp-764764,-2.149794175,Li7Mn5O12
mp-770549,-1.819490109,Li4Cr3Cu3(TeO8)2
mp-748,-3.446353178,Ti5O9
mp-1018660,-0.662342367,CeCoSi
mp-567714,-1.304047885,Rb2AgBr3
mp-567996,-0.631091496,Nb5Si3
mp-29676,-0.38734593,Dy3AlC
mp-1841,-0.373199011,SiIr3
mp-30353,0.032602756,AgPt3
mp-625394,-2.316682682,La(HO)3
mp-779153,-1.866258591,Li3Mn2(CoO4)2
mp-1337,-0.253298978,MoAs2
mp-4429,-3.468838957,CaSiO3
mp-976581,-0.133695814,Nd3I
mp-778284,-2.157775055,Li4V3Co2Sn3O16
mp-754781,-1.776027193,Ga3NO3
mp-11069,-0.576624373,YbAgSn
mp-5940,-0.511564134,CeB2Ru3
mp-756098,-1.688079064,BaSrI4
mp-765608,-1.945980571,Na7Mn11O24
mp-752581,-3.61120759,Sr2HfO4
mp-14445,-0.669806477,Ca(BIr)2
mp-570863,-0.139765465,CrCoPt2
mp-1735,0.098877414,BaC2
mp-8956,-2.465615032,Ho2S3
mp-999517,-0.391890174,MnN
mp-707097,-2.064867839,NaGdRe4(H2O5)4
mp-620369,-0.552888683,TaAg7S6
mp-15144,-1.37191905,ZnAg2GeO4
mp-772564,-1.343669985,NiH8(CO5)2
mp-758780,-2.508504331,LiBiP2O7
mp-2775,-0.22325713,SrAl4
mp-755576,-2.267163841,Zr2N2O
mp-532604,-1.948488647,Na2Zr12B2I5Cl23
mp-556130,-1.599158627,GeXeF10
mp-752658,-3.379407265,Y2SeO2
mp-775755,-2.345038328,Li4Ti3Ni3(SbO8)2
mp-13960,-3.391963012,Sr3Er2(BO3)4
mp-5088,-3.090707632,NaGdO2
mp-16159,-3.284622438,Pr4Si2S3O7
mp-40886,-1.920848838,ZnC2S2(OF)6
mp-559533,-2.182195096,NaLiCO3
mp-867656,-0.829701048,LiH2N3O
mp-570141,-0.988545915,Sm2(PPt2)3
mp-31386,-0.903579881,HoGaPd
mp-16107,-0.808641143,Rb3P6N11
mp-695873,-1.776163448,ZnP3H12NO13
mp-560453,-2.50137776,Ca7Cu(PtO6)2
mp-757360,-1.294107206,HgTe(HO)7
mp-973778,-0.555407932,Hg3F
mp-697840,-3.267122463,Ba3La7Ti3Cr7O30
mp-29358,-2.132656805,Zr6BCl14
mp-555608,-3.081421271,Na3Sc2(PO4)3
mp-759198,-2.450541096,Li2AgF3
mp-7171,-1.603156751,TmP
mp-6112,-0.442217016,K6Na3GaSb4
mp-9928,-2.765835918,CaRhF6
mp-568779,-1.323686816,Tb3CuSiSe7
mp-532290,-3.77289093,Zr3BiF15
mp-574426,-1.329594879,CsCeCdSe3
mp-27575,-2.227141596,Te5(O2F11)2
mp-8405,-0.883522806,Li3LaSb2
mp-773180,-2.155230698,Li4Mn3Sn5O16
mp-17056,-2.560322716,LiZnPO4
mp-558951,-2.631510005,K2B6H2O11
mp-4139,-1.401030562,Nb4GaS8
mp-569350,-0.981512494,La5Sn3Br
mp-505334,-0.62686008,Dy2Mn3Si5
mp-1008805,0.458464058,ReC2
mp-571648,-1.812006028,Rb2MnCl6
mp-973924,-0.024161863,Li(Mg4Al3)4
mp-23060,-0.823044447,Cs2PtI6
mp-9250,-1.170602776,RbLiSe
mp-756394,-1.312099311,Li2V2S5
mp-760812,-2.564393793,Li3CuF6
mp-770755,-2.196864493,Li3CrO3
mp-988996,-0.11988901,FeSbAs
mp-1020026,-2.876364961,LiBeBO3
mp-783902,-3.182077226,Dy2V2O7
mp-20930,-1.499183938,InCuO2
mp-997029,-0.944336633,TlCuO2
mp-756811,-1.597494735,Li4TiS4
mp-315,-2.705363654,PbF2
mp-779455,-2.987704845,Li7Ti5O12
mp-36843,-1.691201957,Mn2NiO4
mp-31216,-0.172245473,BaCd11
mp-16523,-0.8505175,Al3Pd5
mp-764672,-2.355166904,Li3Fe8(BO3)8
mp-29252,-2.291551639,Sn2ClF3
mp-28291,-2.361318844,Ge(SF6)2
mp-560657,-2.869280748,RbLa9(IrO6)4
mp-554376,-3.960509924,Y4TiSi2(O3F2)3
mp-1019793,-3.014563097,K3La(PO4)2
mp-772919,-3.404738103,Tm4(B2O5)3
mp-556440,-3.274029405,CaZr4(PO4)6
mp-774537,-2.933897913,Ti2(PO4)3
mp-684944,-0.774527223,In2S3
mp-27402,-1.615513854,Na2CoCl4
mp-752878,-1.843963518,LiAg2F4
mp-722906,-2.019715936,Na3CuB8H17O23
mp-569848,-0.987785587,LuInPt
mp-767620,-2.763595277,LiVSiO4
mp-1019578,-1.323724648,Ca5(SiN3)2
mp-559426,-3.853393129,Pr2Zr2O7
mp-504427,-3.175174275,Ti3PbO7
mp-761098,-2.092636908,Li3Cu3(PO4)2
mp-27167,-2.0665399,Sn2IF3
mp-773137,-0.688393813,KCaBi
mp-865168,-0.286702455,Be3Ni
mp-1263,-0.328162201,URu3
mp-764501,-1.574367813,Na8FeO6
mp-552028,-3.321751844,Nd2Ti2S2O5
mp-31002,-0.528399726,Rb2Te5
mp-632296,-1.781524152,HF
mp-676275,-3.266233805,Nd2Pb5F16
mp-1017516,0.284015838,MgSiP2
mp-1017508,-1.006346208,LuTlTe2
mp-17030,-0.622792222,RbMo6Se7
mp-20010,-0.68726994,DyCuGe
mp-763212,-2.617923411,Li2VO2F
mp-4728,-0.244834517,Cu2GeSe3
mp-16608,-0.45585155,Si3Os2
mp-76,0,Sr
mp-866500,-1.969475059,Ce3MnAlS7
mp-754693,-2.242211987,Lu(BiO2)3
mp-11711,-3.172281219,Gd(BO2)3
mp-39689,-2.792765597,CaLaMn2O6
mp-764525,-2.347570224,Li3Fe8(BO3)8
mp-6745,-2.908414508,LiGa(SiO3)2
mp-19441,-3.182296566,CaCr(Si2O5)2
mp-620571,-0.704071189,CaInPd
mp-568792,-0.739301431,Si5Rh4
mp-510232,-0.173386007,Nd12Co6Sn
mp-19865,-0.421763658,Ce(MgSi)2
mp-3374,-2.788173929,Nd4Au2O9
mp-3861,-1.236574829,Al(MoS2)4
mp-703589,-2.801460362,K4Ti2H2O5F8
mp-24124,-2.459739843,NdH2ClO2
mp-5114,-1.211132698,K6HgS4
mp-643658,-2.63419353,Na3MgP2HO8
mp-504997,-2.368020611,NdCu(WO4)2
mp-605835,-0.184144081,Nd4MgRu
mp-8150,-0.547095684,Ba(CdSb)2
mp-10964,-0.60630484,CeB2Ir2C
mp-767622,-2.953693122,Li2VOF3
mp-766139,-3.066819855,Li2V2F7
mp-540904,-1.212139448,ThI3
mp-768505,-3.238137907,LuGaO3
mp-540079,-2.178061667,Ni(PO3)4
mp-24618,-1.794703357,AlH10N2OF5
mp-759742,-1.940452005,LiCu4(PO4)3
mp-768273,-2.555300477,Gd3As5O12
mp-740752,-1.932402765,BaRe2(H2O3)4
mp-541083,-1.054028741,KPH5C2S2(NO)3
mp-16504,-0.54496195,HoAl4Ni
mp-972199,-2.155569872,CsTbS2
mp-558867,-1.135349956,H7ClO7
mp-6870,-3.193882988,KBe2BO3F2
mp-767707,-2.623729579,Li2Fe5Si5O16
mp-568039,-1.375479691,Cs(WCl3)3
mp-769019,-1.644115823,Li(BiO2)2
mp-568848,-1.41444507,GaCl2
mp-556278,-2.27651801,Bi6As9Se4S10(O4F13)5
mp-558672,-2.730324989,Si3Bi2O9
mp-505747,-0.848048093,TlIn5S6
mp-677105,-0.242863983,Cu2GeSe3
mp-677422,-2.67977433,Ca2Ga2Si(HO4)2
mp-488,-0.127198222,CuSe
mp-4383,-0.24983523,Nd2Fe17N3
mp-558690,-2.646967836,ZnB4O7
mp-557289,-1.934259293,TiP2Cl8O3
mp-6319,-3.59609361,Na2MgAlF7
mp-775218,-2.802119958,MnNb3(PO4)6
mp-560431,-2.777579327,KBe(PO3)3
mp-626194,-2.30635073,Sc(HO)3
mp-1018105,-0.172528052,Zr2Zn
mp-28920,-0.601673613,Tl5Se2Cl
mp-892,-1.219624942,ScPt
mp-13398,-0.463782084,Yb(MnSi)2
mp-680680,-2.328238013,Sr4Ru3O10
mp-781606,-2.021557431,Fe4O5F3
mp-29200,-1.397739032,KNO2
mp-29637,-1.507741976,K4MnBr6
mp-3370,-3.034773891,Y2Sn2O7
mp-4182,-0.801904924,CrAgS2
mp-11603,-1.963907039,KNd2CuS4
mp-752679,-3.688340369,CaGd2O4
mp-14526,-2.70084369,Na4Hf2(GeO4)3
mp-18876,-1.132576194,K3CrO8
mp-561083,-2.521637013,Na3Bi(PO4)2
mp-18741,-2.108427358,RbLiCrO4
mp-339,-0.028622212,UMn2
mp-553930,-2.031465363,B2Pb6SO12
mp-10597,0.008739613,Ag
mp-31469,-0.38138172,Hf5CuSn3
mp-3785,-0.367288508,TlGaTe2
mp-30789,0.08138358,U2Mo
mp-29883,-2.007074443,Rb3PbCl5
mp-979910,-0.276681935,VCuRh2