id,formation_energy_per_atom,pretty_formula
mp-1729,0.018089276,SmFe2
mp-12545,-0.764852038,Er3Pd2
mp-775015,-1.960625531,Li2Cr3NiO8
mp-20067,-1.809327389,Na5OsO6
mp-9235,-0.885492224,LaNiSb
mp-770639,-2.93273578,Y2W2O9
mp-765688,-3.404634298,LaAl12O19
mp-972084,0.006373168,TbMn12
mp-569384,-0.532033724,PrMgSi2
mp-1013534,0.483053762,Sr3SbN
mp-6023,-0.670004563,Tl2Sn(AsS3)2
mp-922,-0.06348844,CoPt3
mp-865795,-0.366506465,LiSc2Ru
mp-11329,-0.364943866,P2W
mp-976061,-0.371094205,PrGe3
mp-754664,-2.396047677,Li2TiCuO4
mp-22174,-0.504806113,Zr3NiSb7
mp-643902,-1.235566026,SnH4(NF)2
mp-686482,-3.115407257,K2YTi(PO4)3
mp-29804,-0.070720164,Cr3GeC
mp-10887,-0.332897065,HfAlCu2
mp-1449,-2.395002988,Pr3S4
mp-12585,-0.129652522,CrRh3
mp-19009,-0.937088344,NiO
mp-764402,-2.43567948,MnFe(PO4)2
mp-29623,-0.422704241,SrZnBi2
mp-17730,-1.976667492,K2SnO3
mp-30997,-3.510805009,ZrTlF5
mp-556577,-1.946613311,Na3Sb3(AsO7)2
mp-778623,-2.725191914,LiV6O7F5
mp-600480,-0.375261218,Y12Ni6Pb
mp-32529,-2.507636856,V3(PO4)4
mp-30164,-1.653055137,CsSn2Cl5
mp-510075,-0.711258741,Cs7Au5O2
mp-549487,-1.944402815,Sr2Cu(IO)2
mp-3412,-0.460347874,Eu(CuSi)2
mp-568228,-0.724352268,RbLaSi(CN2)4
mp-5621,-0.930074401,NbCu3S4
mp-1016999,-2.614088442,SrGeO3
mp-571085,-0.541951839,Ga2BiSe4
mp-865908,-0.6652761,Yb2HgPb
mp-867,-0.31443339,ErCd
mp-555022,-2.842099373,LuSeO3F
mp-698702,-2.814340188,CaSmMnSnO6
mp-530600,-3.241276513,Li14Ti21O48
mp-8648,-0.735087282,TiFeSi
mp-28559,-2.565993108,Na6Be8O11
mp-862615,-0.45142786,Er2NiRu
mp-8931,-0.401388126,Rb2SnAs2
mp-761404,-1.314413851,Co5CuO8
mp-16557,-4.064836791,SrAlF5
mp-1019509,-2.212752712,B2S2O9
mp-5444,-2.977977583,Y3Ga5O12
mp-21701,0.005006743,UFe5Sn
mp-4648,-2.756897437,KTeF5
mp-998592,-1.584069192,RbCaI3
mp-759636,-3.042488956,Nb5O12F
mp-755594,-1.89235597,ZnReO4
mp-19510,-2.501453947,V2Cd(PO5)2
mp-1883,-0.285551583,SnTe
mp-7092,-0.76858149,TiSi
mp-20320,-0.277396039,InTe
mp-7959,-3.16053612,KErO2
mp-22622,-0.44003657,YbCoB4
mp-684733,-2.878802238,Ti10O11
mp-30196,-0.875576577,ErCuP2
mp-999484,0.366908152,YTi
mp-1019279,-0.522685138,SrZnSn
mp-625526,-1.359909487,Te(HO2)2
mp-559560,-3.513927663,Nd2Ti3(ClO4)2
mp-757310,-1.081139633,ZnP2H14C2(NO)6
mp-23882,-2.165345162,Ca3Al2(HO)12
mp-752537,-3.577922438,Sr2HfO4
mp-16501,-0.829407795,HfAlPd2
mp-556364,-3.198726238,Ca2SiCl2O3
mp-12730,-2.68057227,Ba2YbRuO6
mp-754684,-2.495654363,Ba4IrO6
mp-758073,-1.796025996,Re6Pb6O19
mp-735506,-1.666086844,Li9Co9O17
mp-22921,-0.872752067,TbBi
mp-33338,-0.451918196,LiGa3Te5
mp-686742,-0.391225271,Ag2H21N7(ClO4)2
mp-5050,-1.680646175,Rb(OsO3)2
mp-560572,-2.112638188,Al(HO)3
mp-11307,-0.105247645,MgCd
mp-570901,-0.734533043,Yb2Au
mp-568940,-1.010063785,Y(NiP)2
mp-1932,-0.240251038,Nb3Os
mp-18032,-0.338320531,Nb5Ga4
mp-759743,-1.822015827,Sb5O7F
mp-3416,-3.406883536,Na3AlF6
mp-696057,-0.432100353,LiMg4H13Os2
mp-17407,-1.300241276,Au3F8
mp-770663,-2.369261346,Li2FeBO4
mp-775941,-2.199729711,Cr2Ni3Sb(PO4)6
mp-37312,-1.986668229,Na(La2Se3)4
mp-559911,-1.096207212,V4S9Br4
mp-19806,-0.688408883,USiIr
mp-758238,-2.288691815,Na2ZnPHO5
mp-662565,-1.905044614,K3Yb(SO4)3
mp-982869,-0.391125709,PmYAl2
mp-12496,-1.063902494,CsTmCdTe3
mp-775493,-2.058492695,Li2Fe3WO8
mp-556012,-0.561508007,NaCSN
mp-772408,-3.626871711,Ba4Tm6O13
mp-570596,-0.144894397,Nd2Ni17
mp-561457,-3.207143948,CsAlSiO4
mp-768020,-2.689127981,Li2MnSiO4
mp-696166,-1.855006243,CaH4(ClO)2
mp-850275,-1.111767956,Li3SbS4
mp-757685,-2.57594756,Li2Cu(SiO3)2
mp-29309,-0.280988869,Si2H6S
mp-773198,-1.627625327,Mn5Fe3O16
mp-10091,-0.69818893,KV(CuSe2)2
mp-733998,-1.758168723,TbH12S2NO12
mp-758841,-1.882939943,LiCu2F7
mp-767719,-2.078036982,Li4Ti2Mn3Ni3O16
mp-866313,-2.989810908,Ba3In(BO3)3
mp-20258,-0.414543163,GdIn3
mp-27749,-0.910455615,K2Sb4S7
mp-33088,-2.499281219,ZrO
mp-1743,-0.277913097,Mo5As4
mp-556310,-1.907000094,LiAlS3(Cl2O3)2
mp-2265,-0.179028423,TbCo2
mp-973940,-0.169612004,LiCd3
mp-760060,-1.828733213,Sb(SO4)2
mp-17451,-3.262072101,Nd3ReO7
mp-973969,0.379383046,HoTa3
mp-768883,-1.897360898,Sn2(SO4)3
mp-770101,-1.998713487,Li5MnO5
mp-607829,-0.721719021,AlTlI4
mp-1020106,-2.252493251,LiB(SO4)2
mp-11300,0.052255765,TiCdHg2
mp-29403,-0.414059255,GaCuI4
mp-721471,-1.798520667,CuPH4O5F
mp-760408,-1.652494609,LiZnO2
mp-767699,-3.181861273,LiVF4
mp-568725,-0.439044857,Dy(FeB)2
mp-705846,-1.099373447,CuH16(ClO8)2
mp-18167,-0.295401464,Ca3Cd2
mp-542251,-0.67468901,LaCdAu
mp-30392,-0.473287268,Li2InAu
mp-756942,-2.606671171,Ba3(BrO)2
mp-695515,-3.152272669,Na13Zr8Si9(PO16)3
mp-15141,-3.657538381,NaZr2ZnF11
mp-979418,-0.488165763,Sm2(ReB2)3
mp-865802,-0.601954125,LuRh3
mp-20581,-0.217946377,Ca3In
mp-637255,-0.307103298,Ti2Sn3
mp-753979,-2.341241277,Sn2P2O7
mp-775466,-2.83916808,K2InSi4HO11
mp-775987,-2.766976403,Ti3Fe2Ni(PO4)6
mp-17035,-2.971441507,K3Sc(PO4)2
mp-1013533,-0.639506609,Ba3PN
mp-779491,-2.775886036,BaP4O11
mp-5475,-1.08978087,NaTaN2
mp-862735,-0.386853728,SmAg2Sn
mp-754112,-3.05398766,CeBrO
mp-542178,-0.211540513,Nd2Zn15Ge2
mp-1018067,0.06517476,CrFe3
mp-774394,-2.136018516,Fe10O11F9
mp-11824,-1.097339622,Ca3PN
mp-17874,-2.022181485,Sm2Cu(SeO3)4
mp-976742,0.19256628,MgPa3
mp-667,-0.565227925,Tl2S
mp-21343,-0.516555431,CeB6
mp-21670,-0.204468466,ThInCu5
mp-11871,-0.472571204,HoNi
mp-733968,-2.846662451,BaCaP2(HO4)2
mp-862740,-0.388200961,Sr2TlCd
mp-27173,-0.449349086,P4Ru
mp-28079,-1.080106803,Na2Mn2S3
mp-1836,-0.275541197,TlSe
mp-865502,-0.346275014,YAgHg2
mp-7736,-0.511938358,LuNiSn2
mp-554815,-3.492108649,LaSc3(BO3)4
mp-11020,-1.60146875,GaAgO2
mp-973646,-0.395798574,Lu2ZnHg
mp-985506,-0.09115138,Ac3Tl
mp-23831,-2.645643785,NdHSO5
mp-11621,-0.226817118,ZnNiSb
mp-542903,-2.873231911,ZrPbO3
mp-540811,-1.10672738,Rb2SbBr6
mp-779308,-3.156709615,SrLiLa7(CoO8)2
mp-21861,-1.114459678,Cu3TeO6
mp-28590,-0.169046502,Hg4As2I3
mp-1018822,-0.446153774,NdZnIn
mp-695648,-2.913475061,KNa6Al7Si9O32
mp-6185,-0.25115034,ErCo(CN)6
mp-4229,-0.426695564,Nd(AgGe)2
mp-557920,-2.390022755,Zn3(PO4)2
mp-22165,-0.469092577,Ce(CoB)4
mp-675004,-1.825871181,Ge6Bi7O22
mp-579058,-1.196866997,Cs4Tc6S13
mp-570963,-0.114363137,TaCr2
mp-27523,-1.339235581,VPCl9
mp-10208,-0.569440899,NiMoP2
mp-865124,-0.225061072,NaSr2In
mp-29684,-1.246268485,La5Sb3Br
mp-764423,-2.968717391,Li2CrF4
mp-867737,-1.267579073,LaMgI5
mp-778877,-2.061864976,Li5InO4
mp-558224,-2.493849503,Dy2(TeO3)3
mp-3904,-2.746520548,Mg2GeO4
mp-22575,-1.158185484,Sc3As2
mp-769560,-2.660611805,Li2TiV3O8
mp-757886,-2.322566885,NdHS3O11
mp-2931,-2.998983805,Li2TiO3
mp-775788,-2.464765203,Hf2N2O
mp-770369,-1.779884961,LiNiCSO7
mp-30408,-0.407555028,MgAu3
mp-1408,-0.220258315,MgHg
mp-756978,-2.83991104,Ba3(ClO)2
mp-778811,-2.359711005,Li2Fe(BO3)2
mp-764722,-2.347665887,Li3Fe8(BO3)8
mp-975614,-1.937761673,Nd3AlNiS7
mp-567909,-0.487162159,Pr(NiSn)2
mp-38200,-1.054277207,Li2PS3
mp-7930,-0.528895914,Zr3(Cu2Si)2
mp-757098,-0.897213625,Li2Fe2S3
mp-16524,-0.949304359,ScAlPd2
mp-557954,-0.994488259,GaN5O14
mp-774472,-2.988162693,PrSO
mp-648053,-2.627158844,NaPO3
mp-29557,-1.060121789,CuW3Cl7
mp-766302,-3.0500692,Ba5Nb5O14
mp-757588,-3.769261699,Y11Ta5O28
mp-780864,-2.062333971,LiMn2P2H5O11
mp-630836,-0.619378651,Nd3(GeRu)2
mp-973933,0.264665291,NiN
mp-560039,-3.345985288,NaY(SiO3)2
mp-560534,-1.593027269,Ba3Er2(PS4)4
mp-775019,-2.22567615,CoSb(PO4)2
mp-542013,-1.026670683,Rb4Zr3Se14
mp-865340,-0.312340329,Tm2HgOs
mp-559492,-0.592671696,Tl(NiS)2
mp-780308,-2.501362808,Li5Mn6(BO3)6
mp-978083,-0.26761462,Pr2ZnAg
mp-17148,-0.961997516,Na3GaSe3
mp-557457,-2.846755564,TmSeO3F
mp-2809,-0.651792194,Sb2S3
mp-780491,-2.31200334,Fe4O3F5
mp-2011,-0.961819934,UP
mp-21476,-0.163060561,Fe2N
mp-31370,-2.087677139,Na2S2O5
mp-559127,-3.012884181,K2Zn2Si8O19
mp-758178,-1.55997501,Li2Cu3(CO3)3
mp-997101,-0.655805628,AgO2F
mp-625555,-1.190719314,H7BrO3
mp-780406,-3.893846915,Lu4Al2O9
mp-569001,-0.646658276,Sr2LiCoN2
mp-16559,-1.505251174,KHo2CuSe4
mp-554195,-1.870200857,Sb3As2S14(IF8)3
mp-998420,-1.721519594,KCrCl3
mp-11992,-2.792676536,LiLa2IrO6
mp-5137,-1.134123604,Zr2SbP
mp-14890,-1.176843267,Rb9Fe2S7
mp-772582,-2.740981811,Sr3W2O9
mp-21591,-0.622355724,ZrCrSi2
mp-5957,-3.372824984,EuTaO4
mp-761034,-2.378350528,Hf5N5O2
mp-540456,-2.585889814,LiCr(PO3)3
mp-779062,-2.958790974,Li3V4(OF3)3
mp-753564,-2.002647106,Sn3(OF)2
mp-675748,-0.96942018,Zn2GeS4
mp-638690,-0.458344956,Li2Y5In9
mp-961665,-0.287784322,MgScGa
mp-680185,-0.542860362,CsRe6Se8I3
mp-559348,-3.354060568,BaZr(BO3)2
mp-29754,-0.624868326,SrLiN
mp-755314,-2.478328146,Hf2N2O
mp-774407,-1.715731528,Hg2W2O7
mp-979912,-0.606732422,Yb5Sn3
mp-691119,-1.722673872,Bi14MoO24
mp-9961,-0.535544802,Ti2CdC
mp-4559,-2.678834501,BaCO3
mp-555594,-1.139887306,ZnS
mp-978254,-0.013756599,La3Ag
mp-5321,-0.404781752,Ho7Co6Sn23
mp-3831,-3.47789417,SmPO4
mp-762510,-1.579346307,Li4Ni5Sb3O16
mp-756751,-3.428187155,Tm2Nb2O7
mp-1014204,-0.901255061,Sn5(S2Cl)2
mp-505043,-2.366794318,Eu3Sb5O12
mp-556325,-2.009907187,TeAs(ClF2)3
mp-569261,-1.245977033,Pr7CoI12
mp-766548,-3.322225668,Li4Ti11O24
mp-758168,-1.593095014,NaZn2HSe2O7
mp-1020056,-1.311347469,LiCa3Si2N5
mp-16508,-0.323896603,Lu3Al2
mp-18660,-1.372711732,Sr(ScTe2)2
mp-1102,-2.067593111,LuN
mp-631403,0.866998416,CdPOs2
mp-569879,-1.783297194,Cs2Ta6PbCl18
mp-14797,-0.64653813,RbPt2Se3
mp-17786,-1.554786751,Ba(SmTe2)2
mp-555488,-2.864994676,Na5AlP2(O4F)2
mp-33461,-1.972862941,Li3Mn3O8
mp-6290,-2.6032086,NaInP2O7
mp-764778,-1.99372425,Li3MnO4
mp-21467,-0.367148895,TiCo2Sn
mp-1019746,-3.309243187,K2Ca4Si8O21
mp-705332,-2.37872847,LiCoP2O7
mp-24694,-0.50757888,Zn(H2N)2
mp-2263,-0.74320593,ScIr2
mp-554675,-2.836208701,SrTa2Bi2O9
mp-23768,-2.440863522,AlZnH4O2F5
mp-13170,-3.020517214,KNaGdNbO5
mp-559968,-2.405800692,Na2NbAsO6
mp-757144,-1.448095761,Rb2H8O5
mp-865813,-0.32167593,YbMgTl2
mp-989543,-1.193966109,Cs2BrCl6F
mp-6426,-2.817558819,Na2MgSiO4
mp-865546,-0.642733235,Yb2AgBi
mp-10057,-0.618890497,VCoB3
mp-754192,-3.875132053,Tm2TiO5
mp-35,0,Mn
mp-22189,-1.925032406,In6TeO12
mp-11477,-0.392240558,HoSn3
mp-770036,-2.280855382,Li4Mn3V2Cr3O16
mp-770893,-2.004212314,Li4Fe2O5
mp-24118,-1.526057615,H10SO8
mp-999438,0.237711833,Nb3Fe
mp-7396,-0.228253395,Li3Tl
mp-2460,-4.029318415,Er2O3
mp-690535,-2.18152023,Na(WO3)2
mp-10298,-1.111416192,Sm(SiPt)2
mp-1009015,1.349043809,IrN
mp-29843,-1.100290701,Bi2Se2Cl7
mp-11305,-0.272357756,Li2CdPb
mp-11171,-2.149651212,LiRhF6
mp-582278,-0.575543437,Tm4InRh
mp-556968,-1.862585198,RbNa3SnO4
mp-769600,-2.410813317,LiV2S2(O4F3)2
mp-38807,-3.581337255,Y7ReO14
mp-19280,-1.924766797,NaCr3O8
mp-770619,-2.192932761,Li24Mn11CrO36
mp-531956,-3.998599315,Hf3Sc4O12
mp-5172,-0.373529668,Zr2(Ni7B2)3
mp-768232,-1.779169314,Rb3SbO3
mp-862318,-0.466813903,LiAl2Ni
mp-541938,-0.543869275,Nb6Co16Si7
mp-1005689,-0.220252734,Sm6GaCo2
mp-30170,-0.339971958,Ba4Ge20Pd3
mp-567528,-0.360136474,Li17(AgSn2)3
mp-773161,-2.700610448,NbV5(PO4)6
mp-19734,-2.879197416,MgPbF6
mp-971831,0.044989303,Tm3Th
mp-644419,-1.041379652,LiHS
mp-22670,-0.992991112,HoGeRh
mp-770521,-2.255907608,Li4V3Fe3(WO8)2
mp-29302,-1.881989499,Ba3(GaS3)2
mp-6211,-2.409113948,RbLiSO4
mp-569352,-0.298550617,NdTl3
mp-554497,-1.762486487,CuSb2(XeF5)4
mp-1371,-0.290056528,Sn3Pd
mp-865140,-0.26081416,MnGaRu2
mp-764367,-3.016781288,V2OF5
mp-690511,-1.461909339,K10Co4O9
mp-567594,-1.050680192,Cs2HgI4
mp-774191,-2.52872277,Fe3OF7
mp-10933,-2.147074951,Nd2TeS2
mp-568539,-0.740006825,LaInRh
mp-2231,-0.775579507,SnS
mp-21661,-0.717027573,YSi3Ni5
mp-756187,-1.151671914,Li2FeS2
mp-567498,-2.447735804,Rb2NaTmCl6
mp-30854,-0.702805538,UPt2
mp-771640,-1.692475622,BaSrI4
mp-556049,-2.369026682,Sr4Br6O
mp-979260,-0.516416112,Sc6Ga16Ru7
mp-28177,-1.416450962,NaSbCl6
mp-541450,-2.065765471,In2(SO4)3
mp-16996,-2.705169277,Li3GaSiO5
mp-767440,-2.492613458,Li2MnFe2(PO4)3
mp-5048,-0.627688785,LiGaTe2
mp-755184,-2.605186165,Sm2Se2O
mp-754210,-1.341180413,Li6FeS4
mp-30496,-0.336516587,SrCd
mp-977138,0.761067251,NaTc3
mp-28708,-2.31752504,In3(PO4)2
mp-989621,-0.629846462,LaOsN3
mp-20817,-0.555014433,GePtSe
mp-25906,-2.400221317,Bi(PO3)4
mp-9383,-1.572420149,SrHfN2
mp-27526,-3.014587022,K3InF6
mp-15639,-1.808881488,HgRhF6
mp-760927,-3.002076574,NaTiPO5
mp-756702,-3.06253386,PrBrO
mp-30753,-0.584353325,LaPd5
mp-554554,-1.234831442,K9Bi(PS4)4
mp-341,-2.220380643,PbF4
mp-976763,-0.330972618,NiAsO3
mp-568370,-0.754788704,La3(SiNi)4
mp-760084,-0.844555946,Cu8O7
mp-850532,-2.53566163,LiSn2(PO4)3
mp-21430,-0.36886286,YbPb3
mp-18819,-2.126391331,Ni2P2O7
mp-631349,0.726550878,ZnTcMo
mp-570240,-1.195642204,La14C14Cl9
mp-555366,-2.95078373,LiHo(PO3)4
mp-6027,-1.799430086,Ba2Tl2CuO6
mp-27048,-2.175500117,LiCuPO4
mp-705417,-1.698529111,Fe11O12
mp-1918,-0.05049412,FeRh
mp-4441,-0.376387457,Ca(CuGe)2
mp-10732,-1.462591697,ThTaN3
mp-15113,-2.921334331,Na2Si3O7
mp-567408,-0.715208208,Sm(SiOs)2
mp-568934,-1.606300325,Ti4AlN3
mp-505573,-0.193491964,Zr3V3C
mp-558446,-0.37831515,AgHgSI
mp-543046,-2.740595194,CsScP2(HO4)2
mp-31185,-0.18266559,MnAlFe2
mp-696961,-1.95608928,BeH4NF3
mp-556139,-3.309606172,BaZr(PO4)2
mp-21490,-0.833420522,CeSnPd
mp-22937,-1.369170657,Na4I2O
mp-673098,-2.54602617,LiBi(PO3)4
mp-17024,-1.166132447,Ba2NbN3
mp-540633,-2.412889385,RbNb(GeO3)3
mp-743640,-3.442456796,Li3La8Ti9Cr3O36
mp-29228,-0.477079344,CsSrN9
mp-974972,1.211171645,Rb3Hf
mp-20247,-0.293795254,Dy(Fe2Ge)2
mp-6968,-2.583348586,Cs2KCuF6
mp-2732,-0.756709537,PRh2
mp-630867,-2.587720938,RbLiNd2(MoO4)4
mp-3462,-0.833660345,TmSnAu
mp-973830,-2.349068912,KErO3
mp-21166,-0.593361037,SrCaPb
mp-787,-0.964535835,U3P4
mp-31118,-3.940104564,SmScO3
mp-978529,-0.467194176,SmTmHg2
mp-2800,-0.37494525,USi3
mp-608358,-1.702466318,CuAgPO4
mp-567596,-0.473536305,In6Se7
mp-770519,-2.707613909,Li2AlVO4
mp-773711,-2.757735225,Ti2Sb(PO4)3
mp-978846,-0.488788958,SnI2
mp-637263,-0.456690744,Zr5AlNi4
mp-28742,-0.182031886,Ca4Ni3C5
mp-1013912,-2.087389803,LiCo3P3O13
mp-29794,-3.309902816,Ba2PdF6
mp-733877,-1.936710267,CaB3H13O12
mp-556903,-2.343361668,HgSb4C2(OF11)2
mp-2784,-0.918660423,Na2Te
mp-504968,-1.629352643,RbFeCl4
mp-312,-0.42286435,ThIr5
mp-11000,-3.014143049,CaB4O7
mp-669377,-1.154831804,Ba2CaWN4
mp-4050,-0.705549906,Eu(AsRu)2
mp-554627,-0.492838429,Cu6PS5Br
mp-744755,-1.65899032,LiV5H18N2O19
mp-631452,1.012759353,NbCrW
mp-24625,-0.500660624,KHCN2
mp-610631,-0.881609577,LaGeAu
mp-13376,-0.686734859,SmZnRh
mp-637,-0.590809065,YB4
mp-2851,-0.063592472,VSb2
mp-14115,-1.574290457,LiRhO2
mp-973771,-0.234856895,Lu2MgHg
mp-772153,-1.852088794,Na3CuAsCO7
mp-7372,-0.132988348,ZnAs
mp-754661,-0.676360383,INO3
mp-557591,-3.223330742,SiO2
mp-759095,-2.330202474,LiSn2P4H3O16
mp-3998,-3.729840357,LaTaO4
mp-557656,-2.918903277,RbNaSi2O5
mp-998241,-2.525825799,MnInF3
mp-1018009,-0.237006569,Li2MgSi
mp-22691,-0.512888541,InSe
mp-5459,-3.174587333,Nd2TeO2
mp-684730,-3.053150526,EuTi2CdO6F
mp-20155,-0.054968598,CoSn2
mp-984107,-1.533188121,K3IO5
mp-567097,-0.180468046,LiCu2Ge
mp-772918,-2.717348571,Sr3TeO6
mp-630923,-0.510214816,Ba3Pb5
mp-6770,-2.220510571,BaLa2MnS5
mp-4742,-0.785538037,Ho(GePd)2
mp-27869,-1.811086496,Ba2PCl
mp-637194,-2.512057756,Cs3Sc2Cl9
mp-745159,-1.979688551,MoPH3O7
mp-774579,-3.028386212,LiTi2(PO4)3
mp-4174,-0.906319552,HoNiSb
mp-6296,-0.784212389,K6Cd4Sn3Se13
mp-978,-0.626012069,Sr2Sn
mp-1001612,-0.795307258,LuSi
mp-770372,-3.949496666,CeHfO4
mp-9075,-2.164627,CdCuF4
mp-697811,-2.597426881,Li2FeP2O7
mp-571339,-0.469483666,Ba(CrAs)2
mp-3955,-3.133416018,AlPO4
mp-560239,-3.002574126,K3Ti3(PO4)5
mp-782663,-2.125121303,Co3OF5
mp-850996,-1.640795903,Fe4O7F
mp-977359,-0.593047262,CaSnAu2
mp-697044,-0.620875471,Ba2H6Os
mp-561428,-1.677827981,NiF3
mp-999143,-0.61281946,SrPd
mp-622693,-1.675071865,Mn2NiO4
mp-730446,-1.841307067,AlH10SO9F
mp-773674,-2.703387565,Li4Ti3V3(FeO8)2
mp-31007,-1.50679874,Tb5Br8
mp-760805,-2.435362872,Li2AgF3
mp-780740,-2.208014333,Fe4OF7
mp-10695,-1.140303355,ZnS
mp-6575,-3.068294815,Ba4Na(BO3)3
mp-867882,-0.655719057,SmCdAu2
mp-761057,-3.31989117,Sr5Nb4O15
mp-999508,-0.362760414,MnSiNi2
mp-756799,-2.46362689,Ti2Nb2(CuO4)3
mp-21386,-0.938036064,Eu(PIr)2
mp-783910,-2.414797251,LiFeBO3
mp-618999,-1.096627984,Pr4NiI5
mp-12919,-1.192275982,LaPIr
mp-22159,-0.612720698,UNiAs2
mp-694891,-2.563462521,KRb2Mo(OF)3
mp-684604,-0.443234628,CuS2
mp-14493,-1.689567886,Na5InO4
mp-31691,-2.489896536,LiCrP2O7
mp-18348,-2.66287618,KGaP2O7
mp-505213,-0.049851177,Ba6Na16N
mp-755663,-2.74963406,Ta2Pb2O7
mp-20432,-0.032727337,Fe2Ge
mp-15204,-0.799112142,Tb2Si5Ni3
mp-849775,-2.773362897,Li2Cu(Si2O5)2
mp-978967,0.211939422,SrDy3
mp-558853,-1.525155597,AsC3N3F8
mp-769047,-1.817403202,Na4Bi2As(CO4)4
mp-763193,-2.632761546,Li2VO2F
mp-697133,-0.405407177,Cs2CaH4
mp-989634,-0.589033189,CaTcN3
mp-755864,-2.605980779,TiCu(PO4)2
mp-31493,-0.148357767,RbGa3
mp-865248,-0.38887181,TmNbRu2
mp-29909,-2.068981986,Ba4I6O
mp-983604,-0.384130983,Er3As
mp-556662,-3.218533658,SiO2
mp-21345,-0.841458972,LaGe
mp-559602,-1.255527128,AgSb(S8F3)2
mp-978517,-0.680403174,SmCdPd2
mp-8623,-0.811290211,K2Te2Pt
mp-17429,-3.163428928,KHfPdF7
mp-779354,-2.504263367,Fe6OF11
mp-9415,-1.009090394,Ba6Ni25S27
mp-10623,-1.061762737,ThSbRh
mp-773427,-1.946710045,Li4Mn3CuO8
mp-561068,-1.781714509,BiAsO4
mp-8507,-0.810719847,Sr(P3Pt2)2
mp-779863,-2.546520967,Hf2N2O
mp-400,-0.498405788,NdAl2
mp-754834,-3.187368566,Er2TeO2
mp-22115,-1.014021513,TbSbRh
mp-28858,-1.021218569,Na2HgS2
mp-8876,-3.405742855,Ca4Al6SO12
mp-22141,-0.474192342,BaIn2
mp-31049,-3.169854558,NdO2
mp-770555,-2.380693983,MnPO4
mp-13603,-2.672412917,CdB4O7
mp-16905,-1.248275525,Ba2MnTe3
mp-780134,-2.776406999,Li4Ti3V2Cr3O16
mp-27255,-0.833675525,Ga2TeS2
mp-775995,-2.438431619,Mn3CrSn2(PO4)6
mp-7817,-0.244044897,YB12
mp-25881,-2.548097374,LiBi(PO3)4
mp-6655,-3.590016529,Y2Be2SiO7
mp-977571,-0.33409226,MgRh2Pb
mp-568338,-0.812463839,Sr2GeN2
mp-504723,-2.512463779,Ba2NiWO6
mp-29641,-0.118771577,GeSb4Te7
mp-505268,-3.145532617,BaLu2CuO5
mp-29467,-1.545724284,P4(SeO2)3
mp-973353,-0.113561082,SbPt3
mp-754223,-2.721087961,Ta2CuO6
mp-12029,-0.565690766,Li2CuP
mp-768427,-2.061009588,Ba2YBr7
mp-6144,-3.434427809,Na2La2Ti3O10
mp-999394,0.108442577,Nb3Ni
mp-28416,-0.577864268,Ce3Sn7
mp-4991,-3.0501418,Tb2Sn2O7
mp-770342,-2.745191535,Tb2(WO4)3
mp-9498,-2.391621214,Nd2C(NO)2
mp-33,0,Ru
mp-13451,-0.641237491,Dy2Sb5
mp-6238,-3.098556829,Ba2Ta6Te2O21
mp-30425,0.030457699,BaBe13
mp-865580,-0.286012263,Li2DyIn
mp-23807,-2.666139204,AlHO2
mp-18938,-1.724481305,Tl2MoO4
mp-760088,-3.400251793,MgTi23O40
mp-8620,-0.96818012,La2Si5Rh3
mp-676985,-2.709847662,YbPaO4
mp-720710,-1.909477079,K3H2S2NO7
mp-761148,-3.340323019,Ti9SnO20
mp-20037,-0.691085755,PrInRh
mp-1016928,-2.789287648,MgSiO3
mp-989561,-2.669432952,NaTl2GaF6
mp-28453,-0.721771306,CsAuI3
mp-631504,1.004017821,BaSiTc2
mp-556958,-2.25049088,La4S3N2
mp-639478,-3.273655942,SiO2
mp-21546,-3.098084985,K2CeNb5O15
mp-27356,-1.608974343,AsO2
mp-12137,-0.286032507,Ca(ZnSi)2
mp-698647,-2.463921233,LiVO2
mp-29500,-2.487230546,Ge7F16
mp-8237,-0.765277954,Ba(AsPd)2
mp-28320,-0.161131724,Pt3I8
mp-556253,-4.060774648,Tm2O3
mp-28606,-0.393679107,K3AuSe13
mp-4131,-0.787618407,Sc(CoSi)2
mp-30272,-0.38956113,U2Al19Co6
mp-18723,-2.194627902,BaV2(NiO4)2
mp-30179,-0.221919618,Mn6Al31Ni2
mp-867725,-3.439625638,Tb3SbO7
mp-758504,-2.052411365,K2Mg3P4(H5O6)4
mp-783905,-2.429298406,NaV2O4
mp-971763,0.269093066,ZnSb3
mp-4417,-2.474818735,Al2(SO4)3
mp-18701,-2.642620952,Ba3YRu2O9
mp-8711,-2.346545955,Cs2Li14Tb3O14
mp-977417,-3.369447527,NdB2HF10
mp-10446,-0.688815668,Sc6NiTe2
mp-5586,-3.203443829,NaErO2
mp-675716,-3.638840387,Mg2Zr5O12
mp-18228,-0.102771215,Ba3NaSi23
mp-10700,-0.135106764,MgNi3C
mp-762082,-1.468241427,ThH10N4O17
mp-699468,-0.243243926,CsAg(BH)10
mp-21681,-0.391448349,Nb5Ge4
mp-23622,-3.642641581,Sm3Si2ClO8
mp-19057,-2.687235639,CaNiP2O7
mp-568398,-0.72366822,CaBiAu
mp-775374,-2.629623962,Li3MnV(PO4)3
mp-753629,-2.003527633,Zr2O
mp-989516,-1.365242973,Cs2ICl6F
mp-774794,-2.770998849,Li5Sm3(SbO6)2
mp-11191,-0.363402968,CrSi2
mp-779518,-2.795701314,BaP4O11
mp-615789,-1.797828484,Ba2(CuO2)3
mp-551283,-1.500484094,Na2Cu2TeO6
mp-1011858,-2.465008634,Na2CoP2O7
mp-38008,-1.841525255,Li2CdCl4
mp-998428,-1.618643181,CsCaI3
mp-759,-0.911104613,La2Sb