id,formation_energy_per_atom,pretty_formula
mp-644277,-2.126539027,Fe2CuH4(OF4)2
mp-981393,-0.670681182,Lu2HgAu
mp-684482,-2.380983837,Sn(PO3)3
mp-13948,-3.7859749,Cs2HfF6
mp-530701,-0.462209001,Ni5(Mo3Se4)8
mp-22227,-0.693849554,ZrMnSi
mp-31931,-2.55828841,LiMn4(PO4)3
mp-754969,-3.196923358,TmBrO
mp-20726,-0.680179755,SrCaSn
mp-1018940,-1.614161672,PrSe2
mp-979614,0.023643719,Sm3Er
mp-542463,-2.0448575,Mg(AlCl4)2
mp-772193,-2.252415862,La(HO)3
mp-1013555,-0.950142589,Sr3AsN
mp-505544,-0.18042278,Co21(B3Sb)2
mp-1655,-0.553442058,UIr2
mp-570831,-0.303123109,U3NbSb5
mp-1768,-0.052605074,LaOs2
mp-779353,-2.715691372,Li3Fe5OF11
mp-569785,-0.194192408,TlPd3
mp-542129,-2.793679381,CsAlBP2HO9
mp-677649,-3.086241748,SrLa9MgGa9O29
mp-1013899,-2.353088743,LiFe3P3O13
mp-11806,-0.666503949,LiMgSnPt
mp-569886,-0.106971335,KIn9Ni2
mp-5409,-3.825057205,Y4Al2O9
mp-680015,-0.333411679,Re3(SeBr)7
mp-13910,-0.337442533,Ba(AgGe)2
mp-1013559,-0.728409216,Sr3As2
mp-29295,-1.356227993,Sr3Sb4S9
mp-3273,-2.894879028,Si5P6O25
mp-753799,-3.01837556,CsTmO2
mp-627993,-2.39944452,LiV2O5
mp-510437,-0.464880908,In3Pd2
mp-706715,-1.534097333,Na5P5(H9O7)2
mp-755781,-3.511294856,TbNbO4
mp-862894,-0.670318949,AcSbAu2
mp-1001605,-0.74921381,PrBi
mp-767627,-2.446885604,Mn3(OF3)2
mp-865598,-0.538298439,YGa3
mp-559590,-2.979818637,PrGeBO5
mp-766135,-2.439295649,Sr6Bi2O11
mp-15803,-1.705368468,Y2MgSe4
mp-6525,-2.551621716,NaSn2(PO4)3
mp-573030,-1.578374432,Cs2LiNbS4
mp-20396,-3.12101681,RbCa2Nb3O10
mp-972540,-0.339724348,SmYZn2
mp-555207,-2.166011954,BN(OF2)2
mp-865737,-0.303170097,Li2InSn
mp-776978,-2.270064182,Li4Mn3V3(SbO8)2
mp-775280,-2.377807214,Li5Fe8(BO3)8
mp-996961,-1.214159029,LiAuO2
mp-640885,-0.53131335,Er(CuTe)3
mp-2294,-0.656309189,Al3Ir
mp-1018132,0.090063338,AlBi
mp-780191,-2.523198249,Li4Co3OF11
mp-759722,-1.887442887,SiH8(NF3)2
mp-775762,-1.935516413,AgPO3
mp-20551,-0.12369951,GaCo2Ni
mp-765375,-2.709167264,Li3V4O7F5
mp-698616,-1.985983021,Rb3FeF3
mp-12856,-0.387923317,Pr(AlSi)2
mp-973071,0.273426011,Hg3As
mp-30985,-1.297847038,Tb6Br7
mp-540199,-1.936756416,LiNi2(PO4)3
mp-646824,-0.232090077,Ca3Ag8
mp-973536,-3.051420372,LuUO3
mp-770347,-2.364086349,TbNiO3
mp-1018104,-0.116984208,Zr2Cd
mp-13975,-3.428032685,Er2SeO2
mp-567148,-0.119725033,Cr(B3H8)2
mp-979261,-0.547244753,TiPd
mp-867361,-0.510280788,CeTlAu2
mp-1018130,-0.266932829,PaC2
mp-4210,-3.04065505,Sm2CuO4
mp-21799,-0.759069705,Ta5P3
mp-867834,-0.949141832,LiHfPt2
mp-19132,-1.655439082,HgWO4
mp-28821,-0.697685782,La2Ni12P5
mp-961671,-0.407618204,TiGePt
mp-573635,-1.256576634,Ba2In2Se5
mp-569791,-0.545214879,Pr3MnBi5
mp-1020703,-1.368734016,SiGeN2O
mp-3570,-1.24409749,NdPPd
mp-754660,-0.952759056,LiFeS2
mp-769204,-1.948301402,Li7CuAs4ClO14
mp-574571,-2.481582795,Rb3YCl6
mp-706283,-1.492600456,InH7N2OF4
mp-559848,-2.688031252,Li4SiO4
mp-30715,-0.194000241,Lu2Zn17
mp-784631,-0.022875053,CrNi2
mp-8324,-3.046684823,Dy2S2O
mp-865753,-0.901742619,YbErPd2
mp-780102,-2.481775317,Li2Mn3(BO3)3
mp-505168,-2.389987578,DyCu(WO4)2
mp-14620,-1.509509019,Tm2CdSe4
mp-557328,-2.065148771,Li3Zn2SbO6
mp-29143,-1.371242842,Na3VS4
mp-567191,-0.387845357,CaAlSi
mp-569225,-0.434970848,Mo6PbI14
mp-624186,-0.941705033,La9B3C6Br5
mp-698114,-0.512289078,Ba2AlH7
mp-7950,-3.161445966,ThSeO
mp-15743,-3.513754944,Sr2CeO4
mp-2657,-3.47036627,TiO2
mp-30808,-0.32046607,TbNi5
mp-763985,-2.8812345,Cr4OF11
mp-4072,-0.903770427,Sm(SiRu)2
mp-979424,-0.458146185,YErIn2
mp-540690,-2.470701003,CsV2O5
mp-611062,-0.712701927,EuSb2
mp-689967,-2.50461669,LiMn(PO3)4
mp-752450,-1.672847764,Ba2SrI6
mp-1018902,-1.111238128,PrSbPt
mp-768887,-3.155248385,Y(BO2)3
mp-755367,-2.787543326,LiTa2CuO6
mp-30848,-0.405404123,USnPt
mp-18037,-2.592415371,LiNbZnO4
mp-768085,-2.319189692,Na2MnPCO7
mp-600174,-1.48496417,H4Pb(CO3)2
mp-771127,-2.318894232,Rb4TiO4
mp-7199,-0.955194136,RbPrTe4
mp-7875,-0.331429248,Ba(MgSi)2
mp-554076,-1.616661869,BaLiBS3
mp-763255,-2.376062995,LiCoSiO4
mp-774263,-3.274285234,Li13Ti28O56
mp-978885,0.161592614,SnTe3
mp-865800,-0.887504264,Yb2BiAu
mp-780315,-2.103908475,Li4Cr2Fe3O10
mp-22510,-0.100821055,FeGe
mp-761675,-2.055980994,Li2Cr3CoO8
mp-865032,-0.28905016,Mn2PtRh
mp-758302,-2.151449457,LiAgF2
mp-15786,-2.218333893,KHoS2
mp-11113,-0.690918194,TiTeAs
mp-6564,-3.42211985,Sr2MgSi2O7
mp-13984,-1.970028685,CdPdF6
mp-17244,-1.661810452,Ba2ZnGe2S6O
mp-752406,-2.24765011,Rb3TmO3
mp-673657,-1.774357882,Ti7S12
mp-763169,-2.672883105,V2(OF)3
mp-554009,-3.839384035,Er4Si3O11F2
mp-768203,-0.152263298,BeH2
mp-568139,-0.685481283,NdInAu2
mp-568030,-0.348386662,Th(Al5Fe)2
mp-7707,-0.82109315,Zr(SiNi)2
mp-26247,-2.539352282,Li5Cu(PO4)2
mp-756554,-1.561194156,Li4Cu3TeO8
mp-1658,-1.122269149,Tl2O3
mp-13065,-3.988173947,Ho2O3
mp-978808,-0.46206597,Sm2ZnGa
mp-976223,0.11831893,K3Sr
mp-760814,-2.288600726,LiCuF3
mp-773515,-1.545516941,Te3WO12
mp-849533,-3.432787213,TiO2
mp-775969,-2.276196803,V3Cr3(WO8)2
mp-17652,-0.399335027,Tb6Al3Si
mp-867156,-0.442816419,ScGaRu2
mp-23486,-1.504335823,RbNiCl3
mp-559906,-3.722405211,U3O8
mp-32905,-0.826495316,Cu8O7
mp-757997,-2.489870589,LiSn(PO3)4
mp-559254,-2.180864032,Rb2U3(IO5)4
mp-20240,-0.662574303,YbIn2Pd
mp-559928,-3.263208236,SiO2
mp-684786,-2.296423637,K2Ba6Yb3Bi5O24
mp-32311,-1.989481305,Re2NiO8
mp-758693,-2.184908036,Na4Al4H10O13
mp-23933,-0.111699524,AlH3
mp-17186,-1.070186265,Ca3AlAs3
mp-989628,-0.892805421,YReN3
mp-3106,-0.435002274,Np(SiRu)2
mp-607004,-1.455837885,CeAsSe
mp-556939,-2.323689571,NpIO
mp-972237,0.67283818,Tc3H
mp-770643,-1.874665292,GeWO4
mp-757666,-2.625311924,CaB5H3O10
mp-8857,-0.516117695,Cs2As2Pd
mp-29452,-2.081419465,Sc4BCl6
mp-29282,-2.101310591,P2PtO7
mp-29529,-0.297016416,NaSnP
mp-574224,-0.862194999,Cs4SiTe4
mp-15868,-0.118295126,Co4SnSb12
mp-850920,-2.39926707,LiMn4(BO3)4
mp-1009537,1.476211568,OsC
mp-674374,-1.98247809,In11(SbO8)3
mp-35493,-1.924932279,Zn2SnO4
mp-974828,0.626264746,Rb3Pr
mp-768285,-2.717126393,Be2GeO4
mp-569006,-0.80348445,Sr(AsRh)2
mp-763098,-3.006696289,Li2MnF4
mp-669367,-2.446880982,KAl(SO4)2
mp-21653,-0.587359532,BaNiN
mp-715557,-2.137692387,W3O8
mp-557786,-3.079451779,CaNb2P2O11
mp-679958,-1.537409252,Na3Nd2(NO3)9
mp-675614,-0.593734699,K2In12Se19
mp-7648,-3.280180033,SiO2
mp-776357,-2.785312548,Li2SbP(OF3)2
mp-706594,-2.007573538,U2H14S2O19
mp-977540,-0.60891093,CaBiPd2
mp-662563,-0.515747179,CsFe2Se3
mp-690684,-1.920390763,Na2BH4ClO4
mp-763910,-2.092516952,Li4MnFe3O8
mp-30395,-0.621717937,ScInAu2
mp-582483,-3.11821119,Na2Th(PO4)2
mp-675925,-1.923716362,Ce2PbS4
mp-998988,-0.189459575,Ti3Ga
mp-11112,-3.195145695,Tb(BO2)3
mp-769629,-2.606029077,Mn2V3P6WO24
mp-761893,-2.134273546,Li2Cu3F7
mp-542028,-1.006667382,Ti3Al2NiN
mp-7645,-2.458643413,KAl(SO4)2
mp-8709,-2.143523711,KIn(GeO3)2
mp-706477,-2.815671679,La2Si2O7
mp-707509,-1.084908696,CuH6Se2NClO6
mp-31029,-0.468835267,Nd2Ni5B4
mp-18772,-1.142473387,Na4Mo(NO)2
mp-767674,-1.958838212,KLiSb3O8
mp-763247,-2.691102303,LiVSiO5
mp-760509,-1.616803074,LiCuCO3
mp-510574,-0.24483764,USb2Au
mp-616175,-2.740242794,EuSO4
mp-762052,-2.213285714,Na2Ga11O17
mp-14963,-3.620940106,Pr3NbO7
mp-21024,-0.596957484,SrIn2Pd
mp-780188,-1.931078299,Li6Fe5O12
mp-570703,-2.211002881,Ca(AlCl4)2
mp-863857,-1.574759193,Mn3Co3(SbO8)2
mp-999291,-0.790119887,PrPd
mp-865010,-0.61506801,HfGaRu2
mp-23835,-0.563899356,HgH12C2(Br2N3)2
mp-754262,-1.738974539,Zn2As2O7
mp-605646,-0.481979853,RbBa2N15
mp-754084,-1.441462504,Cu2OF2
mp-558351,-3.276655091,SiO2
mp-989536,-1.824214299,Cs2LiNF6
mp-974392,-0.642614422,HoB4Ru
mp-13349,-1.538590909,KUCuS3
mp-755698,-3.188562442,HfP2O7
mp-29880,-2.654229784,Sm2SCl4
mp-982378,0.569934532,Na3Cr
mp-1278,-0.77949221,Zr2Si
mp-540421,-2.652015769,Li2MnP2O7
mp-581887,-2.178461205,Ca2As4Xe5F34
mp-556282,-2.891230601,Ba2AlInO5
mp-866811,-1.413283103,CaSnS3
mp-650178,-1.022878108,Se5SO3F
mp-9640,-1.745722471,SrCu(SeO3)2
mp-680145,-0.590412252,CdI2
mp-1929,-0.476238168,NdB6
mp-865288,-0.588567218,TmTlRh2
mp-17060,-1.029169104,NaAlSe2
mp-18008,-1.78315887,Ba2HgS3
mp-2301,-0.300584161,NiP3
mp-561336,-3.135291862,Li2Mg2Si4O11
mp-6873,-3.5671322,CaAlSiO4F
mp-735484,-1.390370247,CrP2H17N4O9
mp-760014,-2.798981908,LiSbF4
mp-1008986,1.297257889,IrN
mp-17605,-2.945470957,CsNd(PO3)4
mp-570531,-1.338301207,NbP2NCl12
mp-865239,-3.602810303,UF3
mp-972502,0.015473276,Sm3Dy
mp-31043,-1.38091979,H5NF2
mp-23844,-1.387138402,HgHOF
mp-14715,-2.24911417,Pr2Au5F21
mp-2102,-0.833231854,PrGe
mp-976076,-0.275673153,NaAc2Sn
mp-675124,-0.894913202,In4SnS8
mp-554459,-2.079413298,Pr6S4BrN3
mp-27467,-0.363402312,Ta6S
mp-28910,-0.968514896,CrS2
mp-979046,-0.807671605,Tm2Co12P7
mp-555554,-2.638862174,KGa(PO3)4
mp-676528,-1.540866502,SrTe5O11
mp-769391,-3.172610617,Ba4ZrO6
mp-763835,-2.07607963,V3Cr3(TeO8)2
mp-769290,-2.151713579,LiCuPO4
mp-861885,-0.714821342,LiDyAu2
mp-757493,-2.873244597,Ti11H7O24
mp-1019889,-3.073700967,KSi2BO6
mp-764645,-2.870120509,Li3MnF7
mp-29769,-0.776215541,Sc5(NiTe)2
mp-20689,-0.625186895,Nb3B2
mp-849752,-2.258283849,Li4Cu3Sn(PO4)4
mp-631410,0.560450804,CdNiP
mp-556413,-2.554410096,Na4Cd2Si3O10
mp-754109,-2.796461794,PrAsO4
mp-755374,-2.899716824,Sm2TeO6
mp-9546,-0.123923403,Yb2C3
mp-780581,-2.304607137,Fe4O3F5
mp-14047,-2.78029457,Al2Cd3(SiO4)3
mp-11010,-0.954647248,KNdTe4
mp-961683,-0.422785157,LiMgP
mp-22438,-1.097565901,Ce(SiPt)2
mp-556346,-1.496492441,Pr(IO3)3
mp-542058,-0.22954242,Tl3B3Se10
mp-1019801,-0.883766242,K8PO3
mp-744239,-2.081179851,Fe5P4(H3O10)2
mp-695325,-2.573867717,Ti5ZnBi2(Pb2O9)2
mp-757758,-3.002930641,LiTi3Nb(PO4)6
mp-770065,-3.79643353,Gd2TiO5
mp-974948,0.142098776,Rb3In
mp-770858,-2.634444718,V5Cr(PO4)6
mp-866100,-0.308326264,Er2CuOs
mp-559799,-2.931137915,KGd(PO3)4
mp-1019792,-3.207489869,K2ZrSi2O7
mp-676645,-0.1879997,Ga2(Hg4Te5)3
mp-557926,-1.755964522,CdAs2(XeF5)4
mp-2422,-0.609517228,ErGa2
mp-777498,-2.720113597,Ti3CrNi2(PO4)6
mp-28034,-0.101567137,Cu2P7
mp-979950,-0.070911522,AcYbMg2
mp-767701,-2.495176817,Mn2VFe3(PO4)6
mp-720197,-1.234753384,K4GeH4N2O3
mp-26129,-2.556195548,LiBiP2O7
mp-754978,-1.05560467,CdCu2O3
mp-11792,-1.241726426,PrCuSe2
mp-722774,-1.418187565,Ba3As2H14S8O7
mp-570173,-1.844068183,K2SnCl6
mp-10559,-3.105702003,Gd3AuO6
mp-15073,-2.925843451,BaSmC2O6F
mp-18637,-1.778255978,Na2Cu3(GeO3)4
mp-641778,-0.682085168,Dy7In(CoGe3)4
mp-28744,-1.294014134,Y4OsBr4
mp-781880,-2.901507295,Ba9La5Cl33
mp-779164,-1.62054135,Li4Fe2Ni3Te3O16
mp-775863,-2.283936107,Zr2N2O
mp-1356,-0.344665864,Sb2Pd
mp-768382,-3.566660339,La2Al4O9
mp-643074,-2.413461559,Cs2P2H2O7
mp-23991,-1.168314985,H6S(NO2)2
mp-15385,-2.972642269,Na2UP2O9
mp-505234,-2.849665908,BaP2PbO7
mp-558629,-3.163556508,Ba2ZnSi2O7
mp-754208,-2.967342059,ErInO3
mp-626502,-2.113600887,Al(HO)3
mp-30417,-0.693656668,SmAu3
mp-571400,-1.771672865,Dy3Se4
mp-631274,0.70123988,KFeP
mp-642807,-1.158180484,TbH2Br
mp-23234,-0.770430268,TmBi
mp-29777,-0.511173318,Er2Ge5
mp-765959,-1.341886358,NaPH3C2N3O4
mp-867217,-0.546288318,CaPrHg2
mp-39888,-2.561227905,NdTi3Fe(CuO4)3
mp-775171,-2.344621814,Li4Mn2CrNi3(PO4)6
mp-23013,,U(ClO)2
mp-568591,-1.341668142,La3CI5
mp-559545,-1.158642757,SeO2
mp-33297,-3.278981888,Mg2TiO4
mp-30501,-0.068015729,Ti2Cd
mp-1921,-1.10305078,ThTe
mp-755459,-1.102263826,Rb2O
mp-758944,-2.515954278,LiBi(PO3)4
mp-861976,-0.17850666,PaGaFe2
mp-18150,-3.025186927,K3Lu(PO4)2
mp-961684,-0.975439013,LiCaAs
mp-978963,6.75E-05,Ti3Be
mp-776639,-2.623225921,Li4Ti3Cr3(FeO8)2
mp-37216,-2.384442278,CdPbF6
mp-610738,-1.096645245,Zr(InBr3)2
mp-771772,-3.40144566,Lu4(B2O5)3
mp-865751,-0.78203116,YbDyRh2
mp-22769,-0.593470223,TiCoGe
mp-560923,-1.355628864,AgPb4ClO4
mp-864672,-0.411890694,NbSiTc2
mp-12773,-0.31845424,Zr2Al
mp-777684,-2.774102753,LiFe2F5
mp-10223,-1.094878476,Na2PdS2
mp-676305,-2.586614369,Mg4Sb2O9
mp-2061,-0.158417388,ThTl3
mp-12159,-2.722010647,Na2PO3F
mp-31554,-1.977728913,Co3(PO4)4
mp-973067,-0.526903751,ScGa2Ru
mp-558335,-1.140985849,Na2Pd(NO2)4
mp-10036,-0.224105076,Ce3AlC
mp-699136,-2.226773083,NaAlH2CO5
mp-769628,-2.465150624,Li4V3CrO8
mp-767625,-3.17451638,LiVF4
mp-774358,-2.670636746,Li2MnV(P2O7)2
mp-754538,-0.698732442,HgPtO2
mp-973466,0.083708101,In3As
mp-972891,-0.176643789,ScBe13
mp-562434,-3.200395394,Cs3Ta5O14
mp-569167,-1.073319444,Nb4N3
mp-607715,-0.63136598,PrZnRh
mp-557043,-3.042365528,Ba2Nd2Ti2Cu2O11
mp-29788,-3.746968367,KTb3F12
mp-570463,-0.218649379,TaCo2
mp-5106,-0.337890242,TbCoC2
mp-4537,-0.806933346,Ce(SiNi)2
mp-861929,-0.374533217,Pu2BiAu
mp-972971,-0.409102532,LaTlHg2
mp-862868,-0.935336937,PbBr2
mp-974452,1.38271548,Re3C
mp-756795,-1.41213273,Rb3PbO3
mp-961657,-0.921090771,YNiP
mp-7434,-0.470578895,NaCuTe
mp-19976,-3.329103447,Ce4S3O4
mp-510040,-0.575443163,Zr2Ni2Sn
mp-778791,-2.566396005,Fe4OF7
mp-582976,-1.165433015,MoP2NCl12
mp-15668,-0.818134633,NaSe
mp-29449,-1.399700743,Rb4Cu5Cl9
mp-2147,-0.621945995,SrGe
mp-866088,-0.494345895,Hf2CoTc
mp-556264,-3.109057381,KRb2CrF6
mp-553946,-0.663537296,CoAsS
mp-1018900,-0.375366705,PrCuPb
mp-684711,-1.950706212,Zr3S4
mp-1018093,-0.464795857,CaGaGeH
mp-28919,-0.607560894,Hf3Te2
mp-680570,-1.122470709,Ti5P3
mp-764904,-2.376819653,LiFe2(BO3)2
mp-863362,-3.255320244,LiTa3O8
mp-556237,-3.812988581,KLiYF5
mp-775822,-2.352686246,Zr2N2O
mp-14652,-0.461428142,Cs2P3
mp-2780,-0.224862441,Fe3Se4
mp-1019606,-2.777319143,Cs2Li2B2P4O15
mp-706616,-1.631569125,ZnH8(O2F)2
mp-866009,-0.494579843,DyZrRu2
mp-1020024,-2.690657231,Li6B4O9
mp-1145,-1.057743407,TiB2
mp-865439,-2.315458619,Th3O2
mp-22299,-0.671164524,TbNiSn
mp-42458,-2.512064047,SrAl3P2(HO2)7
mp-973809,-0.173120399,NdBe13
mp-6955,-1.292939524,KGeNO
mp-684426,-2.381094393,Sb(PO3)4
mp-567927,-1.047164645,ZrAlPt
mp-402,-0.125215506,CdP2
mp-767516,-0.729102436,Li9Sb3S
mp-18433,-3.686552656,NdTaO4
mp-11301,-0.310346772,HoCd2
mp-6228,-2.632114479,Na2TiGeO5
mp-30363,-0.74154599,BaAu2
mp-684911,-1.417280215,Sm2Te3
mp-32669,-0.275347556,Ag2S
mp-27968,-2.319881094,Li6Ge2O7
mp-510018,-1.423778255,Rb2CuH12(SeO7)2
mp-776025,-2.768248649,Ti3NbCu2(PO4)6
mp-775489,-2.541015939,CrP6(WO8)3
mp-863714,-0.485112576,Pm2NiRh
mp-15645,-0.392775873,Ag8SnS6
mp-999292,1.104737924,Pd3N
mp-569047,-0.657272974,SmTlPd
mp-642313,-3.175446495,K3Y3(BO3)4
mp-27294,-1.793176637,Ca3AsBr3
mp-782655,-1.677124122,LiFeP(H6O5)2
mp-654129,-0.2240007,GaAg(PSe3)2
mp-560929,-3.072469241,Na3CrF6
mp-761010,-2.984594944,TiP2O7
mp-2468,-0.478853822,ErHg
mp-2498,-0.035719295,PrOs2
mp-760991,-2.706175139,NaNb2O4
mp-7827,-0.27015633,K2Ni(CN)4
mp-3630,-0.735228378,HoInAu
mp-780119,-2.500069999,V6O11F
mp-31745,-2.464970746,Cr(PO3)4
mp-999496,0.190010424,Na3N
mp-541854,-0.271410643,Zr2(Co7B2)3
mp-30145,-0.521479192,Rb2Bi8Se13
mp-862657,-0.3000217,LiCuPd2
mp-645799,-2.456163159,VP2Pb2O9
mp-1001615,-1.360043769,LiZrSe2
mp-18708,-0.359346259,Fe3P
mp-505155,-0.533830203,UCr5P3
mp-16980,-2.771746921,Rb2B4O7
mp-7350,-0.663387426,Li(YSi)2
mp-620372,-0.572215391,Rb2Se5
mp-5022,-0.912223885,Er(SiRu)2
mp-23255,-1.274723209,UBr3
mp-753139,-2.872566362,Li6CuF8
mp-19246,-1.309312507,Sr2Mn3(SbO)2
mp-4743,-0.696145784,ErTiGe
mp-706278,-2.214490473,CaP2(H2O3)3
mp-974437,-0.033097833,Re2C
mp-581376,-0.539397372,Tl3Ag3(SbS3)2
mp-17878,-3.111398894,BaHo2CuO5
mp-706386,-2.334802984,ZrH6O3F4
mp-622258,-2.259073699,RbV2SbO8
mp-7187,-0.621319617,TiAlNi2
mp-34141,-2.568652346,Sr(LaS2)2
mp-734042,-1.416195973,MgH12(NO6)2
mp-864637,-0.388742573,NdAl
mp-16490,-0.500221987,Lu2Al3Co
mp-761827,-1.449796372,Na3CuO3
mp-779161,-2.195576105,Na4Bi2B4SO16
mp-559246,-3.284521651,BaCrF6
mp-504580,-1.81382916,VCuO3
mp-667310,-3.12060066,AlPO4
mp-24657,-2.085028426,ZnBP2H4NO8
mp-14244,-0.966472551,Y3Si3Pd2
mp-569505,-0.466583142,TbRe2SiC
mp-550070,-1.717197273,NbBr2O
mp-24428,-0.516140958,KH2N
mp-696746,-0.029260759,B4C
mp-556525,-2.992288908,BaNd2PtO5
mp-2576,-0.537811285,Sr2Ge
mp-5575,-3.710902151,GdTaO4
mp-1004377,0.102084176,HfB6
mp-850878,-2.028408735,Fe4O5F3
mp-1016926,-0.717274162,ZnIrO3
mp-37045,-2.400330096,Ce2SmS4
mp-569344,-0.804891132,Zr(CoSi)2
mp-555552,-2.32129797,KNaSO4
mp-973841,-0.210321235,LiHo2Al
mp-571035,-0.861200962,OsCl4
mp-978528,-0.061462374,SmMg2Sc
mp-29056,-0.323195513,La3InC
mp-26286,-2.172413156,Bi2(PO4)3
mp-776463,-1.555244439,Ba3(YI6)2
mp-694890,-2.93112576,NaCaFe2(SiO3)4
mp-744702,-1.553830334,MoH6NO3F2
mp-677262,-0.818695367,KInI4
mp-28402,-1.581200044,Zn(Bi3O5)4
mp-707453,-2.427602556,K5NaP3(HO4)3
mp-4531,-1.455694613,NaNO3
mp-7225,-1.028050142,CeAl2Pt3
mp-30599,-0.074900753,Ti2Cu3
mp-557009,-1.139487691,ZnS
mp-755658,-3.145303429,CePrO2
mp-504616,-0.407342574,Ce2Co7B3
mp-995201,-0.819918459,Ti5Si3C
mp-10443,-0.776142188,YbSiAu
mp-976726,-3.308984561,LiDyO2
mp-704203,-2.638589396,Li2VP4O13
mp-505424,-1.753740005,VCdCuO4
mp-972324,0.159669459,Tc3As
mp-849779,-3.03311519,LiSi6BiO14
mp-3552,-3.028811305,Li2Si2O5
mp-10402,-3.075653869,TiTl2F6
mp-753009,-2.433754816,Li2AgF3
mp-22180,-0.795992018,Dy(GePd)2
mp-974062,0.553332636,KTm
mp-23660,-2.287078954,KNa22C2S9ClO42
mp-29903,-2.4352645,TlTeF5
mp-570293,-0.323488594,Nb5Ga3
mp-23183,-2.733979269,NdCl3
mp-22150,-0.340049253,Zr2InCo2
mp-4734,-2.649554825,NaPO3
mp-5330,-0.521654521,LaAlSi2
mp-757872,-1.940699293,Li2Ag3F6
mp-542331,-2.428743705,Zn2P2O7
mp-4538,-1.187680638,TaSnS2
mp-8001,-3.083879622,LiAlO2
mp-865939,-0.053255057,LiMg2
mp-981379,-1.082378548,Zn3CdS4
mp-29596,-1.175574845,Ca3AlN3
mp-22546,-0.316368959,CoAsRh
mp-721171,-1.597788751,CsMgH12(ClO2)3
mp-582996,-0.48106308,Pr2Al19Co6
mp-27986,-3.42289514,Np(OF)2
mp-2164,-1.051563245,Mo3S4
mp-568912,-0.159784885,Be12Nb
mp-29045,-3.780325626,La5Ti5O17
mp-261,-0.228908059,Ba3Al5
mp-978519,-0.345716122,Sm2AlCd
mp-32838,-1.371487654,Ce2Te3
mp-17097,-2.025671366,SrIrO3
mp-850902,-2.277785486,CrFe3Ni2(PO4)6
mp-11116,-1.36618168,CsYCdSe3
mp-545598,-2.940396984,UCdO4
mp-568842,-0.4518453,U3(Al3Ru)4
mp-30350,-0.31184785,Li2AgSn
mp-781897,-3.690991687,Gd3NbO7
mp-752725,-2.115776298,LiAgF2
mp-29611,-0.136257737,B5H8
mp-626500,-2.085319337,Al(HO)3
mp-541436,-2.669156634,NbTl(PO4)2
mp-18651,-2.949520927,Sr3DyRhO6
mp-779908,-1.716215598,Na2FeO3
mp-769962,-2.343524997,Li4TiFe3O8
mp-569753,-1.096202954,TlCoCl3
mp-645700,-0.248898305,Ba14Na11Li5N6
mp-18840,-2.477873305,BaMnO3
mp-735567,-1.690448737,VAs2H4O9
mp-18936,-2.665047237,NdFe3(BO3)4
mp-782634,-2.400790128,VFe5(PO4)6
mp-504900,-0.786425523,Eu(SbPd)2
mp-5125,-0.783545675,Na3FeSe3
mp-7544,-0.940851618,ZrSiRu
mp-997599,-2.960300538,Na8Ta7VO24
mp-557324,-2.927181039,Cs2CrF6
mp-217,-0.304750378,ErTl
mp-559447,-2.474340549,Gd3Se4O12F
mp-865935,-0.329489041,Li2MgSn
mp-19362,-1.946129279,KFe(MoO4)2
mp-997591,-3.03486898,CsNa7Ta8O24
mp-541317,-3.018954252,KTi3Si2P6O25
mp-12088,-0.72736484,Dy(SiOs)2
mp-549,-0.937545933,ScSb
mp-29745,-0.711073835,Na2Mn2Se3
mp-7169,-1.329040377,TmPPt
mp-11565,-0.290200933,YRh5
mp-1014333,0.651533838,C3N
mp-769030,-1.712310042,Bi5BO10
mp-12763,-0.41746252,TbB6
mp-29721,-0.129345673,B3H5
mp-7486,-1.523665365,BaNiS2
mp-997158,-0.994568133,CoAuO2
mp-776648,-2.811187432,Li2Fe3F8
mp-555852,-0.953167487,Rb2Ag2GeS4
mp-12984,-1.222696776,TbCuSe2
mp-985570,-3.279438154,SiO2
mp-977390,-0.218569542,Ta3Ru
mp-28557,-0.795553031,Ag2PdCl4
mp-10711,-0.485564499,VSi2
mp-615833,-1.768844322,Cs2SbCl6
mp-568611,-0.490165003,KCuPSe3
mp-569677,-1.190139308,Sr2IN
mp-1361,-0.332552013,IrSe2
mp-781596,-2.593668921,LiFeOF2
mp-5376,-0.610056731,Y4Ga12Pd
mp-1005752,-0.258648335,Sm3In
mp-12881,-3.03726963,Ba3NbGa3(SiO7)2
mp-11770,-0.637815151,CoCu2SnS4
mp-776104,-1.208367146,K2O
mp-669320,-0.329664052,Ba5Si3
mp-753640,-1.373747675,BiRu2O7
mp-677108,-1.199880905,Li7(Mo3S4)4
mp-865309,-0.596929995,Tm2CoIr
mp-9703,-0.58641296,K2LiGaAs2
mp-4975,-2.803623046,RbZnF3
mp-12689,-0.881788146,Er2InPd2
mp-976421,-0.002950826,Nd3Mg
mp-558655,-1.947883649,Re2PbO6
mp-630866,-1.650195345,Fe3Pb4ClO8
mp-981312,-0.11782615,ZrCu2Hg
mp-555884,-2.011705835,ErCuTe2ClO6
mp-504753,-0.506524452,Cu12As4S13
mp-1019561,-2.82145488,Ca2GeO4
mp-1013987,-1.859043903,LiNi2P2O9
mp-722280,-1.377112579,LiCuH4Cl3O2
mp-10350,-2.857358393,BaNdCuBO5
mp-761784,-2.102874114,Ba8Bi10O27
mp-5515,-0.682981195,Li7MnN4
mp-21475,-0.304043691,SmInCu2
mp-573390,-0.387669913,Np2Si4Mo3
mp-3017,-0.858316484,Na6CoSe4
mp-773126,-2.741640985,Sm2(WO4)3
mp-556551,-2.468861761,GdSeClO3