id,formation_energy_per_atom,pretty_formula
mp-998781,-0.644030505,TlNiO3
mp-4577,-0.554079727,Y3(AlNi3)2
mp-707710,-1.794498514,SrMgUH24C3O23
mp-14125,-0.483266341,Ho2(Ga3Co)3
mp-676296,-2.042862039,U(BiO2)4
mp-30775,-0.103499907,PrMg2
mp-6376,-1.155074586,KV(CuS2)2
mp-600005,-3.273602037,SiO2
mp-30041,-1.090051381,RbBiS2
mp-8655,-0.798790038,SmSiRu
mp-985556,-0.017810425,CdNi
mp-8341,-2.081849891,NaGeSbO5
mp-560826,-3.277272652,SiO2
mp-18880,-3.196631713,ErVO4
mp-556783,-2.182163608,NaLiCO3
mp-600125,-0.162436323,HfInCu2
mp-20210,-0.83742143,Ag2PbO2
mp-961718,-0.441413391,TiAsRh
mp-862654,-0.635234472,LaGaAu2
mp-3648,-0.139598652,Zn2CuAu
mp-17552,-3.44855164,CaSiO3
mp-974658,0.509943941,Rb3Ac
mp-12778,-0.236019358,VOs
mp-697652,-2.517984768,HfP2H4O9
mp-774393,-2.469401469,Li2MnFe(BO3)2
mp-863403,-2.644867801,LiNbP2O7
mp-23164,-0.358422735,Bi2Se3
mp-776772,-2.477645026,Li4Ti2Cr3Sn3O16
mp-582635,-0.029747709,U6Co
mp-775116,-2.537508612,MnCr3(PO4)4
mp-555174,-2.494316747,BaTcO3
mp-999542,0.062202968,MnFe3
mp-1121,-0.2790429,GaCo
mp-776061,-2.855432056,Li4Ti3Mn3Nb2O16
mp-669542,-0.275493209,Ba4Cu3Ge20
mp-696272,-0.967838924,HgHNO4
mp-569561,-1.081995623,TeCl4
mp-18360,-0.707442162,Ca5P12Ir19
mp-850986,-2.315620795,Li6Co6O5F11
mp-29374,-0.228319971,KGaSb4
mp-504990,-2.38583017,RbCeH2S2O9
mp-21136,-1.237272404,Ce3Ni2B2N3
mp-9705,-1.132121341,Ba4Na(BN2)3
mp-19228,-2.41384431,K2MnV4O12
mp-765681,-1.362114052,Co2O3F
mp-27772,-0.512208687,Nb3I8
mp-647350,-2.261458339,Rb5HfFe(MoO4)6
mp-29172,-2.091774616,SeF4
mp-11597,-0.879239711,NdBPt3
mp-28151,-0.435798089,Ho3Ni19B10
mp-754494,-2.070449692,BaLaBr5
mp-569610,0.025231263,CoI2
mp-557426,-3.42828061,CaMnF5
mp-27260,-2.201812339,CsAlCl4
mp-756793,-2.830254543,Li2Nb4ZnO12
mp-23737,-0.340954627,KMgH3
mp-24182,-1.49724005,Rb2ZnH12(SeO7)2
mp-974322,0.01030049,Ho3Mg
mp-555618,-2.947364898,Na2MnF5
mp-32,0,Ge
mp-22559,-0.709718313,Pu(SiRu)2
mp-18625,-0.332064442,KPSe6
mp-695026,-2.74947836,NaYb3Ti2(SbO7)2
mp-1762,-0.768736708,ErRh2
mp-20281,-1.057427733,DySiIr
mp-28227,-0.309395653,Ni11As8
mp-684106,-2.487153144,LiSbP2O7
mp-760506,-1.432989524,PNO
mp-569563,-2.274167484,Ba3Zr6BeCl18
mp-7108,-1.001758258,Tm(SiPt)2
mp-772334,-1.936812976,Li3Fe3TeO8
mp-24719,-0.112095719,NiH
mp-568244,-0.812644042,TlSn2Br5
mp-19373,-2.42419006,LiVO3
mp-23406,-1.647228595,Cs2PtCl6
mp-644828,-0.938378351,AuXe2F17
mp-866692,-2.11691317,La3MnAlS7
mp-5182,-0.059044068,Nd2Fe14B
mp-998233,-1.166206474,InGeCl3
mp-7400,-0.18255543,NaAlGe
mp-38357,-3.523392234,Ba4Bi3F17
mp-541106,-0.510685605,Nb2Se9
mp-756073,-2.697076889,Rb2ZrO3
mp-20151,-0.423065242,Eu(AlGe)2
mp-976055,-0.229664538,Li3In
mp-1773,-0.429683689,ReB2
mp-552604,-2.465485904,YBi2ClO4
mp-771162,-2.083478495,Na3CuSiCO7
mp-6772,-3.141812767,CaBe2(PO4)2
mp-558055,-0.842601821,In2Cu2SiS6
mp-756769,-2.129632327,Na2TlPCO7
mp-31059,-0.385607484,Ba(AlGe)2
mp-680146,-0.590513452,CdI2
mp-557177,-2.927037476,Li2Al(BO2)5
mp-20630,-0.131706792,Ho(MnSn)6
mp-745,0.013803885,ThMg2
mp-781602,-1.965240757,Mn8O13F3
mp-573651,-0.273422997,Li22Pb5
mp-557082,-1.358965753,H2O
mp-865656,-0.234134772,TiMn2W
mp-9574,-0.165129152,NaBeSb
mp-17089,-2.851707462,K3Eu(PO4)2
mp-21067,-0.31070042,ScInCu2
mp-756630,-3.768668051,DyAlO3
mp-767606,-2.749785745,Na2NdPCO7
mp-774319,-2.113508401,Li10Ti2Fe3Ni3O16
mp-29784,-1.110301055,K2Mo9S11
mp-759939,-1.332457171,AgGeO3
mp-775785,-2.547224731,Hf2N2O
mp-675479,-3.972942545,PuPaO4
mp-36031,-1.607585018,Ca(LaTe2)2
mp-2085,0.016748637,PrCo2
mp-19926,-3.294956918,La2Be2GeO7
mp-18575,-2.454938588,Nb2Zn3O8
mp-759790,0.063574652,Ag2Hg5
mp-27832,-1.418290222,Tl2SnCl6
mp-768893,-1.950185319,Mg2(TeO3)3
mp-15819,-0.273906498,Mn3Al9Si
mp-26586,-2.501936095,Li3Sb2P5O18
mp-770763,-2.578949404,LiMnPO4
mp-11237,-0.277786226,ScAg
mp-760311,-1.73076327,Na7SbO6
mp-769557,-2.595526102,LiMnNbO4
mp-865716,-2.881966937,YbCl2
mp-2571,-1.00500229,Rb2O3
mp-760244,-3.338791864,Ca4Nb2O9
mp-773187,-2.357256358,Li4Mn3V5O16
mp-30451,-0.520770587,SrCuBi
mp-568961,-0.542317756,Ba(FeAs)2
mp-1020030,-2.523822855,LiAl(GeO3)2
mp-556523,-1.923222942,LaPb6ClO7
mp-541032,-0.00957933,Te7As5I
mp-557250,-0.764596132,HgINO3
mp-770749,-2.891867356,Li2Ti(BO3)2
mp-767873,-2.275081741,V9Sb7O32
mp-481,-1.051572696,ScPt3
mp-647520,-1.76017633,Sb2Pb2O7
mp-19326,-1.794933734,MnO2
mp-752393,-2.783620178,Be2P2O7
mp-600622,-2.388353363,EuIO
mp-28859,-1.103015066,K2HgS2
mp-675093,-2.548621212,Hf2N2O
mp-32308,-2.848947149,Ta2NiO6
mp-560504,-2.849140401,Rb2Sb2OF10
mp-29297,-1.443191308,Cd3(ClO)2
mp-9945,-0.182023228,CoTe2
mp-752785,-3.720860656,Sm4U4O17
mp-753726,-3.571612688,TbCeO4
mp-22479,-1.259000305,Zr4Pd2O
mp-1019091,-1.738930893,LaSe2
mp-13240,-0.259311466,ScInCu4
mp-4334,-0.603787172,Sm(CoGe)2
mp-8926,-0.966129124,Li3BN2
mp-987,-0.075409087,ZnCu
mp-764046,-2.704781197,V3(O2F)2
mp-4733,-3.797152138,ThTi2O6
mp-776689,-2.888188696,Li3Fe2F9
mp-764225,-1.580882629,LiCo5O5F
mp-620812,-0.644376241,Y2Ge5Ru3
mp-865212,-0.010160491,Fe3Re
mp-676889,-1.968561091,Ba11(Ta3S13)2
mp-560928,-2.161610672,Sb2IBr2F11
mp-510475,-2.599992616,Y2Cu2O5
mp-504760,-0.22444311,Li10Pb3
mp-3838,-0.815919031,Li5ReN4
mp-24307,-0.407948955,CdH8C4(S2N3)2
mp-18704,-3.373236729,CsLiBeF4
mp-7621,-2.180051336,KTcO4
mp-976017,0.335423435,Li3Co
mp-767696,-1.67549752,V2Co(H4O5)2
mp-15501,-1.131694564,Sr4TiAs4
mp-771703,-3.701421205,LaAlO3
mp-744256,-1.692897848,MnH5SO7
mp-760172,-3.177167921,Na7Ti16O32
mp-1016882,-1.067773947,CdOsO3
mp-15575,-2.999357509,Ho3Ga5O12
mp-567381,0.195353532,KHgC2
mp-956,-0.243758072,U3Si
mp-620346,-0.980276648,Ba3InAs3
mp-631405,0.416804256,ZrTcCl
mp-770381,-2.561088611,Li3V3(BO5)2
mp-614455,-0.20248509,GdCu
mp-765258,-2.875030577,Li4MnF8
mp-12128,-0.225426706,Li2MgIn
mp-8923,-0.669496196,Sr2LiFe2N3
mp-1013587,-0.503572604,Sr3Bi2
mp-867171,-0.475726694,SrLi2Sn
mp-10347,-3.343973095,CsCa2Ta3O10
mp-30010,-1.758635678,AsKrF7
mp-757890,-2.516757616,LiSiBiO4
mp-755449,-0.619082141,Cd(AgO2)2
mp-551456,-2.454021172,Ba2CuClO2
mp-555891,-3.281596813,SiO2
mp-22066,-0.498538716,Dy(CuGe)2
mp-34425,-1.855790208,Zn(FeO2)2
mp-781607,-2.41157223,LiMn3(BO3)3
mp-756342,-0.202155455,AgBrO4
mp-541005,-1.496411994,CsH5O3
mp-867358,-2.125436018,PuCl2
mp-684619,-1.891595954,Pr27Se40
mp-31097,-0.295983728,KAlH4
mp-20425,-0.243900433,NpSi3
mp-2172,-0.489051147,AlAs
mp-24030,-2.547052032,ZrP2(HO3)2
mp-757312,-2.513021969,NaInBP2HO9
mp-864957,-0.130387063,MnSbRu2
mp-21223,-0.423752659,YbIn2Ni
mp-862287,-0.877223368,BeAlRh2
mp-39226,-3.698828924,SrLa4TiAl4O15
mp-31630,-3.18208022,Ba2TaCrO6
mp-674478,-2.650593306,BaCO3
mp-756426,-3.274138507,ZrNbO4
mp-8499,-0.322848988,Ho2Cr2C3
mp-752400,-3.838530825,Ce2Sm2O7
mp-1019380,-1.312184206,Al3BN4
mp-680061,-2.099149847,Rb2Sn(GeO3)3
mp-673663,0.050658365,CuGe2P3
mp-504898,-0.620533742,Nb2Pd3Se8
mp-13955,-0.586539034,SmSi2
mp-722294,-0.547604023,Nb3Zn3N
mp-685862,-3.807903059,Tm10Ti6O27
mp-974982,0.131395496,Rb3In
mp-19453,-1.720752343,Te2MoO7
mp-752906,-2.22092325,Ba4Pb3O10
mp-703308,-2.556546107,CsGaP3HO10
mp-1014231,-0.170475138,Hf2Zn
mp-543051,-0.816451569,Lu5Sb3
mp-753793,-4.26243855,Ba2YF7
mp-8866,-1.818919139,La10Se19
mp-19414,-1.950516413,K3CrO4
mp-2938,-0.678680766,Tm(FeSi)2
mp-17979,-3.472223588,BaAl2(SiO4)2
mp-756508,-2.523756796,NbPHO5
mp-738663,-1.395333802,Sn2H10C4N2O9F2
mp-15013,-1.20718153,RbBS2
mp-767765,-0.939577093,Li34Sb8S7
mp-1018896,-0.58294716,PrPbAu
mp-1006256,-0.298995683,CeYTl2
mp-1014227,-1.154585361,Ti2ZnN
mp-1559,-0.902356383,Mg3N2
mp-707841,-1.339849915,PH6NO3
mp-764295,-0.968503081,Na4(NiO2)9
mp-19337,-2.46228342,Ba3CoSb2O9
mp-6758,-0.374386318,KNa4SnSb3
mp-1328,-0.260951038,SrRh2
mp-19314,-2.789391518,Mn4Be3Si3SO12
mp-1873,-2.617374312,ZnF2
mp-757947,-2.535487594,Li2Sn(PO3)5
mp-20983,-0.344398762,V2InC
mp-5051,-0.362415017,Ho2Mo2C3
mp-648893,-2.334165961,Na4V2O7
mp-3345,-0.532221127,Cu3AsS4
mp-12418,-0.613454855,SrCaGe
mp-4437,-1.143917987,NdTe2Se
mp-866290,-0.796754349,DySnRh2
mp-14730,-2.50701537,NaSiSbO5
mp-554944,-2.657849862,TiSO5
mp-1019277,-0.47239226,SrHgPb
mp-1019717,-2.163817845,CsBS3O11
mp-813,-0.484133523,ScAl2
mp-675592,-1.736097568,Ca(Bi2O3)2
mp-505798,-1.130090274,Na4TiSe4
mp-1682,-1.148055925,ZrAs
mp-5388,-1.765657084,Zn(SbO2)2
mp-31019,-0.116963266,Al45Cr7
mp-1073,-0.36655264,CaCd
mp-8697,-3.45680908,ScBO3
mp-776229,-2.147994787,Ti2N2O
mp-6088,-2.408486991,LaCuSO
mp-4622,-3.384006972,Li2BeF4
mp-569978,-1.910182707,Na2Ti3Cl8
mp-569082,-0.149017051,Sm(Sb3Os)4
mp-3239,-0.829753553,Er(CoSi)2
mp-555370,-1.131865711,V(MoS2)2
mp-14560,-3.473924758,Ca2Ta2O6F
mp-972680,-0.402190805,Sm(AgGe)2
mp-28160,-1.166970272,Ca3C3Cl2
mp-13334,-1.956746475,ZnSnO3
mp-16179,-0.696370922,SrCu2GeSe4
mp-867303,-0.032600207,AgAu3
mp-545735,-2.776886258,Ba2NdRuO6
mp-865274,-0.859537654,TlInS2
mp-17424,-0.577316421,TmGa3Ru
mp-641069,-0.490972796,Pr5NiPb3
mp-683899,-0.177482813,Cu2P8Se3Br2
mp-1189,-0.485049237,PrAl2
mp-18981,-2.989642982,Sr2CaWO6
mp-760484,-3.509290793,TmBO3
mp-560591,-3.383295058,NaTi2Al5O12
mp-756988,-3.008642339,Nb5OF14
mp-26210,-2.325915102,BiP2O7
mp-570798,-0.74059495,Er3(P3Pd10)2
mp-695608,-3.10610675,Rb8BaNaAl11Si13O48
mp-2973,-2.611386674,Pr3Sb5O12
mp-542448,-1.079936336,Cs3GaSe3
mp-775137,-1.939471408,CoCu3(PO4)4
mp-12385,-3.592262259,Ba2YTaO6
mp-14795,-0.92161328,K6CoSe4
mp-1019734,-1.23331189,EuBN2
mp-7767,-2.142091306,RbAgF3
mp-12098,-0.74274043,K(PRh)2
mp-558504,-2.134253468,BaZnTeCl2O3
mp-775125,-2.528307462,Li8Fe3Sn(PO4)6
mp-573373,-0.94420373,PICl8
mp-1914,-0.663139187,YGa2
mp-1018812,-0.441867708,NbGeAs
mp-780226,-2.630617998,Li3LaO3
mp-559849,-2.654401288,Ca(GaO2)2
mp-541989,-0.600903781,Na2CN2
mp-30280,-0.840924549,K4(TiTe3)3
mp-983607,0.328292822,V3Cd
mp-536,-0.280257832,ThZn4
mp-637378,-1.023799051,Gd3InN
mp-752606,-2.351303784,Li2CuSiO4
mp-864943,-0.45075969,MnBe2Ir
mp-706301,-0.684263257,HClO4
mp-769583,-2.397294083,Li3VCr3O8
mp-744430,-2.125448037,Mn5P4(HO2)10
mp-1956,-0.595687012,TmGa2
mp-4606,-0.312879977,U(Al2Fe)4
mp-31443,-0.275319746,Li2InIr
mp-569294,-0.584954073,NdB2Rh2C
mp-11262,-0.554134772,YbAu4
mp-19117,-2.310307887,Li4MoO5
mp-1014229,-0.151017606,Ti2Zn
mp-720857,-1.708514721,SbH3SO6
mp-762088,-1.832641904,K2OsO5
mp-570553,-0.369858389,FeP4
mp-757953,-3.217657347,ThNb4O12
mp-25976,-2.218991227,Cu(PO3)2
mp-567472,-0.087136672,CuP4I
mp-5461,-1.746167811,Rb3TaO8
mp-553988,-2.919920434,Cs2LiF3
mp-32895,-3.273567226,SiO2
mp-9978,-1.527118044,ErSe2
mp-554593,-3.752405919,TbTaO4
mp-556506,-2.657574891,MnCdF5
mp-765970,-2.510809708,Ti3Sn7O20
mp-713,-0.458235598,KAs
mp-720263,-1.251954235,CuH4SeO5
mp-1018122,0.006502867,Tm
mp-1019716,-2.740872339,CsLi4(BO2)5
mp-561973,-1.636722048,K(TeO3)2
mp-12341,-1.103381924,CsPrZnTe3
mp-18628,-0.433281702,Dy5B2C5
mp-972120,-0.653571945,Sr(GaAs)2
mp-754434,-1.810907791,Hf3N4
mp-34145,-1.892795309,Ce2CdS4
mp-975361,-2.33294883,RbErO3
mp-21382,-0.722210151,Dy2AlGe2
mp-673669,-2.031461723,In4(SnO4)3
mp-7917,-0.937790385,HfGeSe
mp-977230,0.622618173,Li3Tc
mp-557492,-3.643058589,LiLa5Ti8O24
mp-644324,-1.972340099,K2FeH4(SO5)2
mp-754948,-1.709329074,Cu6OF11
mp-22907,-0.848979638,DyBi
mp-103,0,Hf
mp-554335,-1.426282391,K2CuH12(SeO7)2
mp-12549,-0.36227809,BaAl9Ni2
mp-771898,-2.337541588,Cs2SO4
mp-14551,-3.596673647,Sr2CaUO6
mp-22543,-2.072050933,Sr2GdCu3(PbO4)2
mp-20400,-0.898648539,Ce(GePt)2
mp-764154,-2.235606162,LiCo2OF3
mp-5898,-0.784168062,La(SiNi)2
mp-974458,0.263193463,Re3F
mp-867162,-0.539486785,LiTm2Rh
mp-752398,-1.933956362,BaCuO2
mp-770997,-3.177075964,Li2HfO3
mp-761454,-2.048572825,Sn(WO3)3
mp-20831,-1.056684041,Gd4Sb3
mp-7661,-2.495571022,Li2RhF6
mp-31818,-2.212690933,Fe3(PO4)4
mp-5854,-2.394500539,LiGaO2
mp-685633,-3.922713402,Y10U4O27
mp-2567,-0.463646456,V3Si
mp-772208,-1.768436825,Li3Co3SbO8
mp-28423,-0.514110006,Ga2TeSe2
mp-773319,-1.732282531,Mn3Cr2Te3O16
mp-35869,-1.485798503,TiNbN2
mp-773055,-3.259607468,Li3Mg3Ti6O16
mp-775736,-1.09501526,CoPH21N5O7
mp-1969,-0.267213647,NbSb2
mp-545974,-3.132099085,AlPO4
mp-2602,-1.513970426,NdAs
mp-631635,0.592648025,TaCoSn2
mp-684833,-3.035865037,Na8Al6Si6O25
mp-781997,-1.59680866,SmH10S3N3O11
mp-655,-0.405782946,Na3As
mp-772438,-2.36847812,LiCoPO4
mp-7478,-3.096605142,RbTmO2
mp-1020142,-2.740242961,Na2B4O7
mp-2926,-0.283628933,Pr2MgNi2
mp-7038,-0.392406878,TlPd2Se3
mp-773058,-2.781404359,Ba6Ti7(Sb3O14)3
mp-4279,-2.528648586,CaGe2O5
mp-972412,-0.948871985,TmLuIr2
mp-8789,-1.823889776,Ca4As2O
mp-672213,-0.802749222,Eu(AsPd)2
mp-985302,0.05030837,Ac3Pr
mp-18986,-2.966371666,Ba2MgWO6
mp-27490,-0.401063097,Te2AuCl
mp-31183,-0.544016917,ErAl4Ni
mp-996,-1.366963456,OsO2
mp-1818,-3.495165018,SiF4
mp-20471,-0.588347159,U4Si6Tc7
mp-552120,-3.526552364,YClO
mp-976856,0.120584319,NaMg3
mp-867132,-1.460147007,RbZnH2Se2BrO6
mp-6140,-0.43126302,PrNi2B2C
mp-4250,-0.951273062,Tb(SiPd)2
mp-22309,-0.273201358,CoSe2
mp-43134,-3.389395752,NaNdTiNbO6F
mp-19460,-3.190185837,Ba5Nd8Mn4O21
mp-560409,-1.265432765,P3S3N6F5
mp-757636,-2.47232376,NbTlO3
mp-541996,-3.225838416,Pr2SiTeO4
mp-11615,-0.518971725,TmMnGe
mp-557754,-3.129995674,ZrP2O7
mp-568405,-1.981851907,K2NbCl6
mp-582259,-0.905761415,Li7VN4
mp-761579,-1.194174187,FeCo3O8
mp-753508,-0.910451139,LiCuS
mp-777591,-2.856665301,Li4Ti5Fe3O16
mp-768229,-1.062828605,Li2BiS3
mp-562,-0.481200572,Sb2Pt
mp-981212,-0.040582573,TmMg2
mp-759526,-1.624668961,Bi2O3
mp-7298,-0.320482059,Li(CuP)2
mp-30948,-1.498531003,Tb(IO3)3
mp-570634,-0.10153609,Cd3As2
mp-631354,0.686937276,ReOsRu
mp-1008626,-0.30861187,VTe2
mp-10844,-0.218520683,Te2Ir
mp-867234,-0.463669603,TbMgHg2
mp-585226,-2.542737249,Li3Fe2(PO4)3
mp-755194,-2.570523286,Er(ReO4)2
mp-771060,-2.198204491,Na5LiNi2P2(CO7)2
mp-767,-0.574809548,Yb3Ge5
mp-755840,-2.651032214,Nb2SbO6
mp-756095,-1.094761729,NaCu3O4
mp-23949,-0.45893162,RbCaH3
mp-30021,-0.431979207,K5Sb4
mp-530986,-3.153812639,MgSiO3
mp-554526,-2.930373131,KGd(PO3)4
mp-1018089,-1.165102619,CaZnSe2
mp-764730,-2.626375864,Li3VO3F
mp-989512,-1.563507976,LiTl2InCl6
mp-770627,-2.096804621,Li2MnFeO4
mp-11006,-1.573486582,BaPS3
mp-30343,-0.040346391,InAg3
mp-556804,-3.250448501,PrAl3(BO3)4
mp-674513,-3.637120238,Dy3TaO7
mp-1124,-0.123508351,MgZn2
mp-755380,-3.895081786,Ce2Dy2O7
mp-28490,-0.315974059,Tl3BSe3
mp-765351,-2.350417744,Li2Sn4P4O15
mp-557401,-1.576840898,Na6PbO5
mp-569975,-0.477365123,Yb3CoSn6
mp-771876,-1.78935531,Li5NiO4
mp-1776,-1.60791004,UN2
mp-674940,-1.18715451,La12Au3I13
mp-23119,-1.030473712,Cu5Se2(ClO4)2
mp-676814,-0.530228642,Cr4(Ga2Se5)3
mp-567248,-0.426533146,Yb4Mn2Sn5
mp-976949,-0.240187111,Lu3In
mp-11569,-0.274560871,SmTl3
mp-685003,-1.854629065,Tb2Se3
mp-20800,-0.271352569,ZrIn2
mp-5816,-0.445665577,UBC
mp-11690,-0.537903171,Tc2P3
mp-4804,-2.120410727,Li4TeO5
mp-771110,-2.535098272,Li4Mn5P6WO24
mp-2674,-1.090514077,YPt2
mp-558947,-3.28058642,SiO2
mp-19851,-0.697302503,KInTe2
mp-631384,1.532501545,Sr2VW
mp-571166,-2.052141318,CaBr2
mp-23884,-2.245873934,SrGe(HO2)2
mp-557664,-2.735212613,Cs2TlBiF6
mp-554435,-1.827351164,TcBi3O8
mp-8983,-0.943117013,CaSiPt
mp-768161,-2.529962255,LiSiPCO7
mp-20033,-0.22558971,SnIr
mp-16965,-0.82600862,LaTm(Ge2Ir)2
mp-2906,-1.013750948,Ho(NiP)2
mp-29836,-2.348471691,Na3HoCl6
mp-770154,-2.578899393,Li3V3(BO5)2
mp-14276,-2.389558545,RhPb2F7
mp-557203,-3.629281144,SrZrO3
mp-6660,-2.86785853,BaNaBO3
mp-765549,-2.883826345,Li7CoOF7
mp-643738,-0.424720062,Eu(MgH3)2
mp-734771,-1.942086281,PrP2(HO)7
mp-8073,-0.378783269,AsPd2
mp-558208,-1.936071912,RbInAs2O7
mp-37255,-1.662256258,Na2RuO3
mp-570520,-1.316068869,ZrHg3(SeCl3)2
mp-558759,-1.507272556,Cd4Te6Cl6O13
mp-2473,-0.084741539,Re3As7
mp-631420,0.806139344,CaRe2Si
mp-782664,-3.00206161,Ti3MnO8
mp-762163,-2.486224493,Li3TiMn2O6
mp-10824,-0.359065173,ZnCu2GeSe4
mp-755998,-2.922131914,Zr3N2O3
mp-18713,-1.832584111,Ba2Li(CuO2)3
mp-775440,-1.969610153,Li2Cr3NiO8
mp-542972,-1.190061652,KNb2PS10
mp-1606,-0.116145023,NbAu2
mp-777258,-4.208221951,Ba3YF9
mp-775786,-2.54821302,Hf2N2O
mp-863724,-0.401351638,InPd2Au
mp-10942,-3.056782175,KNaLaNbO5
mp-17722,-3.672518685,PrTaO4
mp-11607,-1.212769195,Si3N4
mp-559184,-2.36772216,Zn2Si3Pb4SO15
mp-2534,-0.355646068,GaAs
mp-556709,-3.09480909,Na2ZrSiO5
mp-22947,-1.670515515,K2ReCl6
mp-773238,-1.377905625,Mn(CoO2)4
mp-775959,-3.152755214,LiLa7(CuO7)2
mp-972318,0.097782223,TiSn3
mp-28602,-1.702432333,Na3ClO
mp-2049,-0.128188983,ZrMo2
mp-1380,-0.139359754,Zn3Ru
mp-3163,-2.606122656,BaSnO3
mp-761589,-1.659614114,NbCo3O8
mp-570666,-0.414163447,Mo3Pt2N
mp-777751,-2.767602253,Li3Nb3P8O29
mp-510057,-3.078786505,Gd3NbS3O4
mp-18463,-2.525436959,RbZnPO4
mp-978539,-0.284253741,SmTmRu2
mp-2843,-2.586639652,SnF2
mp-561353,-3.744071881,NaZr2MnF11
mp-17434,-3.759985163,K2SmF5
mp-771073,-1.62230229,Li4Mn3Co3(CuO8)2
mp-675830,-0.423903637,FeCu5S4
mp-978542,-0.455404094,SmErIn2
mp-505078,-2.591886142,BaNb7O9
mp-779095,-2.755115312,Mn3OF5
mp-2523,-0.689932517,PuPt3
mp-755901,-3.688159589,Sm3NbO7
mp-30929,-1.179918454,Hg4As2O7
mp-561090,-3.274331103,SiO2
mp-996958,-0.784309384,AgHO2
mp-1019593,-2.902587542,Ce(PO3)4
mp-16818,-0.843195266,Rb2Cd3Se4
mp-30533,-1.010804978,KPt2S3
mp-5175,-1.998651206,NaInO2
mp-976236,-0.252677357,NaCaTl2
mp-555629,-2.125965047,SbTe(ClF2)3
mp-783903,-1.606795773,Li2Fe3NiO8
mp-754406,-2.311016627,Li2CuPO4
mp-683,-0.139246768,Pr2C3
mp-623814,-0.62727903,Hf8FeTe6
mp-16509,-0.519538008,LuAl4Ni
mp-31233,-0.881067305,Ca4P7Ir8
mp-30672,-0.319014004,Ti3Ga
mp-30340,-0.356396148,ErInAg2
mp-13949,-0.380059789,Cd(GaTe2)2
mp-2700,-0.381536068,CaSi2
mp-30818,-0.703397235,Li2AlPt
mp-982261,-0.325489179,PbSe2
mp-767427,-2.362796137,LiFe2(BO3)2
mp-2661,-0.46931426,SrSi
mp-976424,0.137894712,LiLa3
mp-762029,-1.852417067,LiAg2F4
mp-769494,-2.301440358,Na5Fe2P2(CO7)2
mp-772216,-2.73627315,LiNb8O14
mp-560588,-1.134702732,ZnS
mp-23915,-3.299792887,Ca2Al3Si3HO13
mp-558548,-2.517253046,Na3B6NO13
mp-761840,-3.623870511,Zr5Ti7O24
mp-1016902,-1.285408665,ZnSnO3
mp-780310,-1.746771557,Fe5(O4F)2
mp-11224,-0.188302838,Sr8Al7
mp-755883,-3.163297119,NaDyO2
mp-10089,-1.050000066,Ba5Sb4
mp-6413,-2.952013268,LiDy(PO3)4
mp-30422,-0.533402149,Sr7Au3
mp-1018723,-0.109165644,HoCo3Cu2
mp-646116,-2.169670816,Na3MgC2BrO6
mp-566717,-2.055892784,Fe2BO4
mp-675104,-2.3491595,Na3YCl6
mp-560107,-1.667246895,SbAs3(S2F3)2
mp-762840,-2.509546889,Li3CrP2HO8
mp-17951,-2.821712497,Cs4Zn3F10
mp-558805,-2.817268455,Na3Nd(BO3)2
mp-28881,-2.223052782,Rb2UCl5
mp-20162,-0.672957897,InAgS2
mp-570711,-0.828268634,YbGeAu
mp-557352,-2.019913503,CaP2Xe5F22
mp-560725,-1.13997478,ZnS
mp-28800,-0.530555273,K2Bi8Se13
mp-677731,-2.954857538,Rb2NaNb6(PO8)3
mp-29082,-0.892894996,Ba5CrN5
mp-1011377,-1.420121159,CeSe2
mp-975905,0.977324762,Mo3I
mp-9530,-0.277668825,Y4C7
mp-22760,-0.458256991,La(MnGe)2
mp-780110,-2.512174928,LiVP2HO8
mp-31302,-1.747691628,KCO3
mp-978960,0.019510748,Sm3Tm
mp-22346,-0.637046245,BaGe3Pt
mp-36305,-1.136587656,Pr2UTe4
mp-24038,-1.673674399,K2CuH12(SO7)2
mp-864918,-1.066054031,NpN2
mp-541753,-1.116023737,Cs2WBr6
mp-6891,-1.918655318,Sb2RuC6(OF2)6
mp-582924,-0.170527723,Zr6Fe23
mp-3276,-0.520184607,Nb4Cr2Si5
mp-27838,-0.35802482,Na3Bi
mp-530303,-2.546280885,Mg(GaO2)2
mp-834,-1.762366021,ThN
mp-540424,-2.464468893,Cr(PO3)4
mp-695960,-1.591546432,NaZn(HO)3
mp-556808,-2.90838649,RbNb(BO3)2
mp-13771,-2.436099761,Sc2Cd3(GeO4)3
mp-34202,-0.229948938,Bi2Te3
mp-625272,-1.518505575,Zn(HO)2
mp-28714,-2.157245322,Dy(AlCl4)3
mp-18794,-3.458454384,Sm2TiMnO6
mp-2760,-0.540601148,Nb6C5
mp-760502,-1.674709608,LiH2ClO
mp-18334,-2.900593276,NaHoGeO4
mp-22170,-1.934807982,Li4PbO4
mp-11368,-0.476613469,Er5Ga3
mp-18134,-2.810713478,Sr3YbRhO6
mp-554941,-2.91096136,KRb2BiF6
mp-976744,-0.178314703,LiEr2Tl
mp-768512,-1.580030825,Cu2(SO4)3
mp-560188,-1.908624264,Ba4NaAuO8
mp-5215,-0.742661197,NdNiGe2
mp-18943,-1.805905588,BaNiO2
mp-540545,-1.304462711,MnH8(BrO2)2
mp-15856,-0.515960142,DyRh3C
mp-18549,-3.992679417,Ba6Mg7F26
mp-5159,-0.523887677,LiGa2Pd
mp-766262,-1.183121574,H20C3(N2O5)2
mp-1739,-0.678929315,Hf5Ge3
mp-558083,-3.412938038,BaLi2Ti6O14
mp-20642,0.055779149,NdMn12
mp-696736,-3.485353155,RbBe2F5
mp-30230,-1.315790054,Rb4SnS4
mp-569213,-0.32612311,Dy4Ni12Sn25
mp-30441,-0.205925292,Be17Nb2
mp-646633,-2.437838527,V2Ni(PO5)2
mp-2444,-0.692656135,GaRh