id,formation_energy_per_atom,pretty_formula
mp-567770,-0.065279619,Zr2Al3C4
mp-849953,-2.196538044,Li2Mn3VO8
mp-776323,-2.250941806,Li2V5NiO12
mp-756930,-3.027207724,BaCaO2
mp-777855,-2.417946254,Li4NbFe3Cu2(PO4)6
mp-561260,-2.907196462,Na2CaP2O7
mp-30867,-0.541168723,ScRu
mp-775644,-2.057895416,V3CuO8
mp-684031,-0.15797585,Mg3(TiAl9)2
mp-542833,-2.287959415,Zn3(BO3)2
mp-31136,-0.39674061,Lu2NiSn6
mp-4891,-3.77661401,HoAlO3
mp-559186,-2.628235597,BaBiBO4
mp-505223,-3.049864199,Ba2Tb2Ti2Cu2O11
mp-686702,-3.130240911,Ca4Al11Si13(AgO16)3
mp-12927,-1.120073172,Ba(BeN)2
mp-7921,-2.447920238,MgPdF6
mp-20260,-0.756192525,U(SiIr)2
mp-753623,-0.676816064,Li2Cu4S3
mp-998787,-2.215897866,CaTlCl3
mp-866297,-0.569695274,EuCdAu2
mp-30449,-0.107949198,MgCuBi
mp-973538,-0.365775524,Lu2AlZn
mp-559213,-1.942200647,CsIn3O5
mp-294,-3.548249112,UO3
mp-28087,-2.423614597,Pb4IF7
mp-560238,-2.550847685,K2CuF4
mp-13695,-2.672312538,SmCuO2
mp-1020122,-2.303007551,MgS2O7
mp-850959,-2.497410659,Li5Mn6(BO3)6
mp-17291,-0.666719183,Na3SiTe3
mp-757282,-2.339881137,Li2Sn5(PO4)4
mp-985829,-2.024983613,HfS2
mp-871,-0.510982936,FeSi
mp-778700,-2.924070048,Li2FeF4
mp-754110,-2.55961429,SmAgO2
mp-559349,-1.948036972,Sb2ClF17
mp-778256,-1.883787487,Rb2MgO2
mp-30624,-0.733464673,Dy11Sn10
mp-17137,-2.250279809,Ba3ZnRu2O9
mp-2640,-1.543643282,TbAs
mp-770988,-2.158929826,Na2CoPCO7
mp-16577,-3.904307743,Li2CaHfF8
mp-752446,-1.484141354,RbNO3
mp-981311,-0.37341231,SrTlHg2
mp-864990,-0.210024797,Mn2AlW
mp-18873,-1.816452408,Rb2NaMnO4
mp-28661,-0.593004213,Ba2Cu3P4
mp-744205,-1.826849527,K2Cr2AsHO10
mp-675977,-0.529609722,AgBiS2
mp-33746,-2.683654311,SrCO3
mp-31089,-0.844716423,Ho2Pd2Pb
mp-569237,-0.90798067,Ga(BiCl)4
mp-1008858,-0.944647501,NdBiPd
mp-9210,-1.998797395,La(PdO2)2
mp-18399,-0.508849479,Dy3Ni7B2
mp-27568,-0.503207261,Ba10Al3Ge7
mp-21580,-3.293509835,EuSnF7
mp-541818,-0.576350992,Rb4(BSe)9
mp-19169,-3.185415962,PrVO4
mp-776740,-2.151480999,Li2MnWO6
mp-568552,-0.412414729,LuNi4Sn
mp-19348,-3.03922702,Al4Co(BO5)2
mp-8221,-0.864363966,ZrAsRu
mp-770574,-1.351645365,La2MgI8
mp-627355,-1.055774351,CeGePt
mp-770107,-1.558791159,Fe2CuO4
mp-17164,-2.593213806,NaNbGeO5
mp-6268,-3.072442656,KTiPO5
mp-24638,-1.969428099,Mg3P2(HO)16
mp-15837,-0.665895734,Nb5Se4
mp-752503,-3.826987433,CeZr7O16
mp-754370,-2.863600619,Ba3GeO5
mp-4122,-2.6025461,GaPO4
mp-433,-0.413526374,DyAl
mp-777898,-2.830403277,LiFeF4
mp-30849,-0.755045435,TaPt2
mp-972504,-0.350156,Sm2AlZn
mp-28073,-2.686880545,UCuO4
mp-754250,-3.250605812,NaLuO2
mp-981748,-0.220691369,TbAg3
mp-9886,-1.05338195,La(PRu)2
mp-989532,-2.770822924,Rb2TlInF6
mp-556212,-3.04921298,K4U5Te2O21
mp-570441,-0.514505688,Sm4Ga16Co3
mp-780619,-3.047586736,RbTaO3
mp-767146,-3.247406117,Li7Ti12NbO30
mp-19360,-2.804618423,LuCrO4
mp-1006118,-0.635839381,P2S7
mp-561351,-3.27706336,SiO2
mp-767151,-2.243029869,Li2CuNi(PO4)2
mp-18297,-0.660633176,Ba3(GaN2)2
mp-753712,-2.949479936,YIO
mp-30671,-0.400113618,Ti2Ga
mp-770943,-2.317339898,Li4TiNi5(PO4)6
mp-850396,-2.467926365,Li2Mn3(BO3)3
mp-774359,-2.876174142,V3OF11
mp-615314,-0.322514597,ScCoC2
mp-770559,-3.327212584,Dy2WO6
mp-570377,-0.041590428,Sn3As4
mp-23085,-1.896859474,Ba2Cu3(ClO2)2
mp-772993,-3.169446096,Li2Ti7Nb6O30
mp-779885,-2.670154776,Li2MnV(P2O7)2
mp-570256,-0.301271303,Ag2HgI4
mp-2578,-0.22074864,NiTe2
mp-12359,-0.038864727,AgSbTe2
mp-647,-1.229776637,NbS
mp-764771,-2.468457893,Li6V5O12
mp-768754,-1.967102592,LiBi2(SO4)3
mp-31364,-0.513404232,Ce(Al5Ru)2
mp-21499,-0.777500067,YbInPd
mp-759634,-2.440679641,Sr16Cu8O23
mp-20186,-2.499673148,PrRuO3
mp-2525,-0.246757706,PrAg
mp-556641,-2.601074018,Na2LiAlP2H2O9
mp-676206,-0.492965971,RbAg4I5
mp-20219,-0.654957124,CsUCuTe3
mp-574244,-1.025121013,Ce(PRu)2
mp-1435,-0.217984363,SrZn5
mp-775433,-0.914712098,Li2Ni(PS3)2
mp-13207,-1.99554253,CeZnPO
mp-510065,-1.236224976,CsNdHgSe3
mp-29420,-1.263141869,Hf(Se2Cl3)2
mp-754672,-3.490799397,TiO2
mp-762259,-2.278752756,Li2Cu2F5
mp-16751,-0.374465457,ErCuPb
mp-770900,-1.840596217,NaMnAsCO7
mp-7469,-1.235435509,NaCuO
mp-530714,-1.027448166,Ba14AlSb11
mp-570606,-0.796317537,Pr4Ge3
mp-756074,-2.023965974,Bi2PO6
mp-22503,-0.377657821,ZrCo2Sn
mp-697994,-1.345962061,Cu3H4SO8
mp-30474,-0.390177518,Ca11Ga7
mp-637866,-0.770414892,Sc9Ni5Ge8
mp-693857,-3.095262532,NaLi2Al3(SiO4)3
mp-616260,-3.378773204,KYb3F10
mp-542063,-1.799561522,Rb4H6C2O9
mp-774241,-2.016450586,NaVAsCO7
mp-9206,-0.301771039,CsAg5Te3
mp-3612,-2.538317793,NbSbO4
mp-13925,-3.599160309,Cs2NaYF6
mp-974667,-1.763056584,Rb2H2C2O5
mp-21890,-0.683930906,NdCoSi
mp-723419,-1.522162363,Sb2S19F12
mp-721686,-1.385930569,SnH4(ClO)2
mp-706544,-0.547419765,NaGa(H2N)4
mp-765615,-2.043850256,Li6Fe5SbO12
mp-572441,-1.225523805,Cs3AuO2
mp-571352,-0.34726749,TmB6
mp-11415,-0.380449594,Sm9Ga4
mp-15322,-0.668029576,ScCuSi
mp-976589,-0.074830559,NaIn3
mp-10765,0.020353055,Ho
mp-3922,-0.526242485,AgSbS2
mp-778194,-0.799034177,Ge2N2O
mp-29506,-1.690956138,CsBiO2
mp-752555,-3.613202556,SrLa2O4
mp-28680,-1.220948254,KGaBr4
mp-976420,0.012151126,Nd3Ho
mp-569768,-0.369401919,NdInAg2
mp-582799,-0.27705739,EuAl4
mp-778617,-1.811562366,Ni3OF5
mp-13932,-3.06332436,Ba2DyReO6
mp-28478,-0.380605137,NaTe3
mp-558241,-0.955783797,TaTl2AgS4
mp-640926,-0.897172179,Cu(NO3)2
mp-505071,-0.453006237,Si2Pd9
mp-540997,-1.139738004,FeTeCl7
mp-769516,-2.023094679,Na2NiPCO7
mp-21503,-0.411136144,YMgIn
mp-19119,-2.066585972,Sr2NiOsO6
mp-21712,-0.79683792,Tb2Ti3Ge4
mp-763418,-0.841039372,Li2Fe3O10
mp-22323,-1.988078657,In2O3
mp-541947,-0.753315485,Rb2Th(PSe3)3
mp-676923,-1.47890996,Cd2Bi6O11
mp-753657,-3.486006097,TiOF
mp-4519,-2.939170015,KPrO2
mp-754933,-2.63870802,SmTlO2
mp-37550,-1.273713698,Mg2Ta3N5
mp-11418,-0.526782973,TbGa3
mp-18739,-2.69458435,BaYMn2O6
mp-776147,-2.23768942,Li2TiFe3O8
mp-979041,-0.325660117,Tm(AlC)3
mp-546295,-2.170645971,Sr2CuOsO6
mp-7379,-0.079429583,TlCdSb
mp-1009134,0.093465175,MnFe
mp-28171,-1.390575543,K3IO
mp-669918,-0.425560366,VSnRh2
mp-707343,-1.435513292,ZrH12C2(NF)6
mp-10314,-0.693262022,Yb(ZnAs)2
mp-15889,-2.727317226,Ba2LaIrO6
mp-6310,-3.313043174,Ba3Y(BO3)3
mp-554853,-2.63094983,Na4Si3(SnO6)2
mp-866157,-0.850271509,TiGaRh2
mp-559534,-2.714187474,Ba5Al2In2IrClO13
mp-775017,-2.271219542,Fe3Ni(PO4)4
mp-2865,-2.554195026,K2CuF4
mp-977453,-0.427837715,Ca2CdIn
mp-757586,-1.798086085,Ba2Tl(HO)7
mp-770532,-2.396974515,Mn2PO5
mp-505543,-0.650078354,Lu2CoB6
mp-4513,-0.483624837,Ho2Ga8Co
mp-30721,-0.060894821,Hg5Pd2
mp-772425,-2.255350992,Li3V(SO4)3
mp-779903,-2.306716939,Fe4O3F5
mp-757723,-2.043691271,SrH4(SO4)3
mp-568778,-0.229574054,CuTeBr
mp-21766,-1.036487873,Ba(InSe2)2
mp-866016,-0.656211983,AcBiAu2
mp-11358,-0.231177358,TaCo3
mp-561058,-2.602246353,Na3Ga(PO4)2
mp-21810,-0.784689198,Tm5(Ge5Rh2)2
mp-756103,-3.035966301,Y2HgO4
mp-769480,-3.377667393,Y4Ga2O9
mp-567590,-0.399945517,LuOs2
mp-780580,-2.20734447,LiMnPH2O5
mp-505564,-0.946139366,Bi2Se4Cl7
mp-556283,-3.140535644,Na2TiSi4O11
mp-971740,-0.33255914,Sr3As
mp-24104,-2.812447507,LiAlSi2H2O7
mp-771338,-3.184924011,La2P4O13
mp-767716,-2.986773024,LiVSi3O8
mp-515,-0.283499695,TmTl
mp-1016843,-1.403290602,MgOsO3
mp-976818,0.122200897,Ni3Au
mp-22841,-1.676376122,Ba2In2S5
mp-707473,-1.941786942,InP(H2O3)2
mp-974426,0.552532297,Re3Sn
mp-505467,-1.011293971,YSiPd
mp-4689,-0.251664128,Al7FeCu2
mp-756452,-3.882135421,SmDyO3
mp-616378,-0.953411815,CsSnI3
mp-15319,-0.26457082,Lu2C3
mp-2250,-0.410028463,ZrNi2
mp-569178,-1.381467578,HoTlSe2
mp-5306,-1.495872742,Nb4CrS8
mp-867868,-0.505749655,Sm2AgIr
mp-767556,-2.661027168,NaTiPCO7
mp-22694,-2.522573681,LiPPbO4
mp-6110,-3.06977937,Sr2YSbO6
mp-776762,-3.093429936,LiVF5
mp-559635,-2.728492751,Sr3CaIrO6
mp-866668,-1.109259005,Rb2SbBr6
mp-561018,-3.034231859,Na3Sc2(BO3)3
mp-561536,-2.767097761,NaMgBO3
mp-560036,-3.365217459,Li2Ca3Be3Si3(O6F)2
mp-850985,-2.387500176,LiFeP2HO7
mp-1925,-1.678200182,ZrS
mp-770540,-2.419891424,Mn2PO5
mp-975912,0.865733053,Mo3H
mp-849554,-2.446946759,Li2Mn3(BO3)3
mp-15964,-0.372546187,Hf3Sb
mp-850221,-1.066741427,H28RuS2(N3O5)2
mp-19067,-2.392452466,Mg3V6(FeO6)4
mp-505527,-0.789091766,Ti5Si4
mp-540193,-2.539100727,LiMnP2O7
mp-625406,-2.315280732,La(HO)3
mp-780181,-1.675856719,Na2Cr4O13
mp-218,-3.883495326,Sm2O3
mp-24733,-1.810544411,NaZnP3(H4O5)2
mp-756587,-3.411924126,TiO2
mp-3949,-0.10335644,K7LiSi8
mp-555234,-2.43213916,RbSbBrF3
mp-30232,-1.406849665,Tb3SiBr3
mp-12666,-0.074307907,Be12Pd
mp-1009592,0.124867207,CrFeTe
mp-773068,-3.182613786,LiZr2(PO4)3
mp-436,-0.738848601,SmRh
mp-976343,-0.919811905,HoErPd2
mp-22284,-0.773013912,SrInPt
mp-30103,-1.141551653,AuF5
mp-30045,-0.151296498,CoGe2
mp-865211,-0.808831691,TmInRh2
mp-778879,-3.044036485,LiV2OF5
mp-560956,-3.127994201,Cs2KCrF6
mp-23507,-0.75299222,InSn2Br5
mp-29542,-1.708473773,K4Bi2O5
mp-38695,-1.681239236,LiTbSe2
mp-14241,-0.483289498,Tl2SiSe3
mp-569617,-0.790333513,Ca3Zn2(CuP2)2
mp-684965,-0.937271565,ZrSe
mp-21318,-0.156481292,PtPb2
mp-558209,-3.403023606,Ca3Mg(SiO4)2
mp-762507,-1.899026506,Li2CrNiO4
mp-778739,-1.640925838,LiCu5(PO4)2
mp-556004,-2.407079836,Ba3In2Br2O5
mp-766919,-2.146137299,Li8MnCr3O12
mp-31083,-0.829951097,PrSi2Ru
mp-780499,-2.46800942,Li2MnFe(BO3)2
mp-3010,-3.372792714,Rb2TbF6
mp-27365,-1.032490386,BaBiSe3
mp-600063,-3.277217252,SiO2
mp-1777,-0.326510483,Li15Ge4
mp-849718,-3.230093336,Na2Ti4O9
mp-505576,-0.34752041,Zr6Al7Cu16H9
mp-39260,-3.020664364,Na2CaPO4F
mp-624221,-0.479250306,Ge3Rh5
mp-22048,-1.142020358,Pt2PbO4
mp-686296,-3.094326945,CaGd2Zr(GaO3)4
mp-14410,-1.224076388,Tl6TeO12
mp-22766,-2.414027252,CaIn2O4
mp-24646,-2.539228772,NaAlBP2H3O10
mp-1019361,-1.039900835,ThSbTe
mp-558349,-3.320270508,Ba5P3ClO12
mp-30733,-1.09475454,HoSnPt
mp-22339,-0.533679243,ThCoSn
mp-4354,-0.266955573,Tl(NiSe)2
mp-9127,-2.398237935,Ba(SbO3)2
mp-20294,-0.42971874,CeIn5Rh
mp-626851,-1.453591897,Fe4H14O13
mp-764727,-2.005845577,Li8NiO5F
mp-752405,-3.814864291,Dy2SiO5
mp-3667,-1.732544924,P2S2O3
mp-2252,-0.840387519,ScB2
mp-27350,-0.247921173,U(BH4)4
mp-999054,-0.204052698,Ti2GaCo
mp-18707,-0.59237959,Mg3Pt
mp-754822,-2.481863351,Li4Ti3Sn5O16
mp-14515,-1.403967915,NaNd(GaS2)4
mp-2530,-1.038500453,Li2Te
mp-697753,-2.655469959,Li3Cr2(PO4)3
mp-18706,-0.660654666,Y5(FeTe)2
mp-865464,-0.295229069,PmSi3
mp-864631,-0.447283215,LiNbRh2
mp-849558,-2.882728856,Cr4OF11
mp-1989,-0.61481835,Ta5Si3
mp-559878,-1.575882085,K2Na2IrO4
mp-17694,-3.460312408,Ca5Al6O14
mp-675941,-0.624978927,Li7IN2
mp-22259,-2.316775846,Yb2Ru2O7
mp-541823,-1.059585514,TlCr5S8
mp-31107,-1.653765577,As2Pb8O13
mp-23875,-1.183361331,CuH4(ClO)2
mp-19921,-1.489269637,PbO
mp-11793,-1.236206859,SmCuSe2
mp-556467,-1.466172606,Rb4Nb2S10O
mp-13620,-0.682076525,ScSi7Ir3
mp-1903,-0.235357544,BaAl4
mp-560186,-3.322462108,BaMgSiO4
mp-510582,-0.593522993,NdNiSnH2
mp-19789,-0.411427766,Mn(BW)2
mp-761341,-2.977311186,TiVO4
mp-559715,-2.594294149,Li2Cd(PO3)4
mp-33325,-2.220103685,Mg(FeO2)2
mp-2013,-0.195588156,HoTl3
mp-766275,-1.811029136,Ca2Bi10O17
mp-850305,-1.591197052,SrCaI4
mp-12884,-0.646094221,Hf5Te4
mp-28584,-0.496909894,Tl2CuI3
mp-554018,-3.369034948,Mg3BeAl8O16
mp-972960,-0.706325471,La2IrAu
mp-989558,-2.872502299,Cs2TlGaF6
mp-972454,-0.061595862,Sm2Mg
mp-541956,-2.562854337,CsTiAsO5
mp-29373,-0.222738791,KAlSb4
mp-579086,-3.228015082,KSrNb2O6F
mp-696651,-3.074991293,K3NbHOF7
mp-11311,-0.290006243,TmCd2
mp-10811,-1.230842431,NaSr4(BN2)3
mp-19367,-2.906330285,NaCr(SiO3)2
mp-21849,-0.952646046,Eu(SiIr)2
mp-752426,-1.122168623,Li3SbS4
mp-772529,-2.88980522,Y2W2O9
mp-779305,-2.381293551,Li2FeBO4
mp-2480,-0.182076607,OsSe2
mp-568322,-0.616742403,Sr3Li3(NiN)4
mp-7573,-0.456018895,Co(BW)2
mp-559119,-1.360058674,IN2O4F5
mp-22558,-0.528781491,TiSi
mp-761886,-2.279098285,Li2Cu2F5
mp-29535,-1.038909535,CeSiI
mp-9018,-2.463024122,LiCdPO4
mp-8181,-1.133183123,Li2CeN2
mp-779579,-1.629365419,LiCu5(PO4)2
mp-697742,-2.375342689,MnP2O7
mp-777491,-2.560967772,Li3V2P4(HO8)2
mp-763482,-2.511454576,VPO5
mp-28513,-0.870071207,Pb(ClO3)2
mp-23887,-1.621600422,MgH12SO9
mp-862943,-0.36518884,NaPmHg2
mp-781494,-2.324351458,Li4Ti3Mn3(CuO8)2
mp-4002,-3.700330496,Li2ZrF6
mp-14589,-0.750118717,Hf2Si4Ni3
mp-972117,-2.397542464,SrTeO3
mp-12929,-2.842928695,SmAsO4
mp-21295,-0.340574426,Nd2In
mp-697128,-2.271578962,KCa2P4H11O18
mp-28684,-2.283118094,Sb7Se8F35
mp-555596,-1.660427063,K6Si2S6O
mp-636328,-0.642694794,TiPd3
mp-567185,-0.361672323,SnHg6(As2Br3)2
mp-504588,-1.296026302,Cu2H2CO5
mp-36940,-0.241223235,Mg(CN)2
mp-979985,-0.676398511,YbAu3
mp-556911,-2.737833857,FeF2
mp-1554,-0.837744559,KTe
mp-4092,-2.171133414,SrSeO4
mp-12806,-0.094960321,Cu2GeTe3
mp-686718,-3.261281288,Sr5Al11TlSi13O48
mp-28501,-1.863536558,K2(NbCl3)3
mp-542915,-0.395649804,TiAl3
mp-2484,-0.467931364,SmSn3
mp-675137,-0.737172159,Cu4Sn7S16
mp-14324,-2.028800957,K2Na4Be2O5
mp-3319,-1.665449937,Mg(RhO2)2
mp-1867,-0.235470482,Ta2Ni
mp-652494,-1.145525714,Cs4Re6S13
mp-540747,-0.388847947,Nb3SiNi2
mp-2469,-0.97116876,CdS
mp-776933,-2.782091775,LiFe2F5
mp-22662,-0.819415386,TiGaPt
mp-3161,-0.217009582,LiAlSi
mp-1002115,-0.831497249,LaPd
mp-766208,-3.363045197,Ba3LiTi5Nb3O21
mp-1805,-0.288402384,ErRh5
mp-1018175,-0.61870757,ThAu
mp-770625,-2.608397402,Li4Al3Cr3(SbO8)2
mp-673073,-2.497597684,LiSbP2O7
mp-631431,1.094423954,InHgW2
mp-11522,-0.185191371,Ni3Sn
mp-16116,-1.502784501,RbSm2CuSe4
mp-567780,-1.047425826,RbSn2Br5
mp-18258,-3.684738868,BaTb2O4
mp-21089,-0.445422204,Ce(MnGe)2
mp-567694,,La2C2Cl
mp-5915,-1.079856265,TlNO3
mp-23583,-1.795918847,Cs4BiSbCl12
mp-557391,-2.481108394,Na2Ca2(CO3)3
mp-22602,-0.522675022,CaIn2Au
mp-20007,-0.259026621,MnNiGe
mp-775202,-2.413694,CrSb3(PO4)6
mp-555194,-2.124402132,SiHg3(SF3)2
mp-766452,-3.876329273,La9ErO15
mp-996956,-1.038908214,CuHO2
mp-977534,-0.359124715,ZrNbTc2
mp-780288,-2.23971733,Li3Si2(NiO4)2
mp-974335,0.051660387,RuRh3
mp-1008661,2.245216201,AuC
mp-542874,-3.211454395,LiAl(SiO3)2
mp-753541,-2.17857857,LiCuF4
mp-555211,-3.278434969,SiO2
mp-18246,-0.917323376,K6MnTe4
mp-977564,-0.385847494,MgScHg2
mp-21562,-1.544809094,Sm3InSe6
mp-19245,-2.747520912,BaLaMn2O6
mp-767632,-2.707385433,VPO4
mp-568237,-0.577242853,CeNiSb3
mp-779783,-2.442248543,Li4MnFe3(BO3)4
mp-540951,-2.830923739,Na2Sr(PO3)4
mp-30489,-0.187147057,La2Cd17
mp-14207,-0.52872398,Ba(ZnSb)2
mp-864696,-0.153160229,Ho2CoOs
mp-782643,-2.499393679,Li5Mn6(BO3)6
mp-699266,-1.957646861,K2MgH8(SO6)2
mp-755391,-1.937211289,BaNa2O2
mp-759172,-2.293797234,TaSb3O8
mp-867181,-0.469498421,SmMgHg2
mp-16969,-3.883412257,Lu2SiO5
mp-642238,-0.684100399,Y6AgTe2
mp-9489,-3.368713299,NaSmTiO4
mp-764502,-2.39191291,Li3Fe4(BO3)4
mp-9951,-0.317492506,MnNbGe
mp-778594,-2.360212739,Na2V6O15
mp-851029,-2.301989754,Li4Ti3Ni3(SnO8)2
mp-740719,-1.896788968,Ba3In2(HO)12
mp-571540,-1.534975709,ZnCl2
mp-772822,-1.48633328,Li3Cu3TeO8
mp-5992,-0.566658128,LaB2Ir2C
mp-21194,-0.669464136,NdGeRu
mp-735530,-2.69758855,Ba2Fe3P6HO22
mp-774523,-2.452974515,Li3Sb2(PO4)3
mp-975596,-1.164920647,PuIrO3
mp-976935,0.198890618,Ni3Hg
mp-571147,-0.762767142,Hf(SiNi)2
mp-781753,-2.42248489,Li3CuP2O7
mp-560649,-1.419600237,KLa(PS3)2
mp-5694,-2.179341507,NaHoS2
mp-769207,-2.013417649,Y2(SeO4)3
mp-554083,-2.169028123,BaZnAs2O7
mp-29561,-0.739513263,CaSnAu
mp-867347,-0.31475559,Al3Tc
mp-756142,-4.237056745,La2Th5O13
mp-29537,-0.388737853,Cl2O
mp-30625,-0.257798305,Dy2Tl
mp-29577,-0.874833889,CsBrO4
mp-865812,-0.454252013,LiSmHg2
mp-19435,-1.855572874,CoMoO4
mp-998786,-1.710350932,TlPdF3
mp-721217,-2.393134858,K2P2H2O7
mp-571582,-0.40574278,TlHg3Sb2Br3
mp-40161,-3.273459726,NaHf2(PO4)3
mp-753766,-3.665119251,Ho6ReO12
mp-23097,-1.702030272,K2Os(Cl2O)2
mp-1018055,-0.918118142,HfIr
mp-1008832,-0.178584199,HfC
mp-972494,-0.085586894,SmMg3
mp-18344,-1.001750683,Ta2Tl4S11
mp-684817,-3.148492915,K2LiTa6(PO8)3
mp-29720,-0.222727185,Li21Si5
mp-29301,-1.960085656,Ba4Ga2S7
mp-773884,-1.583606501,Bi19O30
mp-777567,-2.826420687,LiFeF4
mp-704942,-2.629496794,Li2Cr(PO3)5
mp-16821,-2.579022272,Ba3PrRu2O9
mp-558135,-1.80296821,Ti4S8Cl6O
mp-770173,-2.207065403,Mg2Mn3O8
mp-971819,-0.432181834,YLuIn2
mp-9381,-0.528779373,Zr6FeTe2
mp-865919,-0.179415606,MgAlAg2
mp-863944,-2.81702084,Ba5V5O14
mp-84,0.045997455,Sn
mp-23046,-3.011547484,SrIF
mp-933,-1.556240958,YAs
mp-776093,-1.912196443,CsAsO3
mp-849565,-2.281944455,V2O5
mp-10816,-0.774293271,NdAgAs2
mp-780855,-1.633904262,Fe4O7F
mp-555507,-4.125220884,Sr10Al2ClF25
mp-4959,-2.607640124,Ca(GaO2)2
mp-19092,-1.942001508,CoWO4
mp-755760,-2.112866065,CuBi(PO4)2
mp-13,0,Fe
mp-768665,-2.412017473,LiBiB2O5
mp-707491,-1.58015063,Re6H12Pb3C2S2(N2O13)2
mp-706631,-2.559680325,Na2B3HO6
mp-772273,-1.971562224,Li2MnH4(SO5)2
mp-1018656,-1.005718261,Ca2H3Br
mp-862761,-0.610820117,PrBiAu2
mp-639154,-0.148373857,Co23B6
mp-768368,-1.435330772,K4I2O
mp-865461,-0.278760015,LuZrCo2
mp-999200,0.100583855,Si
mp-774465,-2.125792274,LiMn(SO4)2
mp-558332,-1.385933059,K5Au(IO)2
mp-21171,-0.225279635,MnGaCo2
mp-23956,-0.332145806,K2MgH4
mp-8392,-0.863439523,Sc3Si3Ni
mp-770426,-1.098103522,Ho(ClO4)3
mp-779893,-2.846442742,DyP5O14
mp-781767,-1.581997437,Li3Fe2(CuO4)2
mp-631468,1.285669308,SrScBe
mp-23963,-0.92418509,HIO3
mp-974341,0.041347367,RuRh3
mp-20575,-0.73610905,Nd2InGe2
mp-569098,-0.605846248,RbNa11(WN3)4
mp-8263,-2.275382523,KNa2BO3
mp-27184,-2.478750472,B10(Pb2O7)3
mp-694952,-2.443324677,Ti5Fe11O24
mp-698576,-2.561282039,Ti3Fe5O12
mp-646102,-1.457063988,Al3Bi5Cl12
mp-24674,-2.473845103,Be3P2(H2O5)2
mp-770707,-2.565398575,Li2AlFeO4
mp-30587,-0.097649181,MgInCu4
mp-11904,-2.758431833,LiSm2IrO6
mp-7024,-0.258195161,Tb2C3
mp-686705,-2.23042286,CaNb2Ga2(CuO4)3
mp-13265,-0.557209042,ErAgSn
mp-31380,-0.857662699,SmPd
mp-772434,-2.186189168,Li4CrO4
mp-849675,-2.489290932,Li5Mn6(BO3)6
mp-11526,-0.340104965,TmNi5
mp-771303,-2.514336981,LiMnB2O5
mp-754892,-1.534234393,Rb3ClO
mp-7748,-2.881524375,NaAlO2
mp-723002,-0.89962033,Ag2H12S(NO)4
mp-601817,-0.064816596,Cu4H3C2N5
mp-636232,-0.631009946,CeInAu2
mp-30094,-0.2476821,H2CN2
mp-669421,-2.538672519,AlTlSiO4
mp-770023,0.074732849,Ag2Hg3
mp-24761,-2.579661107,RbGaBP2HO9
mp-555850,-3.338058103,LuSF
mp-19048,-2.736321893,BaWO4
mp-559243,-3.453759365,Nd2Ta2Cl2O7
mp-27258,-0.111137385,P3Au2
mp-685300,-0.975319851,Ti4P8S29
mp-694942,-2.811884286,BaNa5LiCo5F18
mp-20870,-0.873310291,Dy2InPd2
mp-14638,-3.100784497,Rb2LiGaF6
mp-2186,-0.683399992,NpAs
mp-769261,-2.02590337,Na6Sn2C4SO16
mp-625824,-1.465390285,Sr(H8O5)2
mp-4035,-2.371687097,RbReO4
mp-752438,-1.568363116,Tl3(SbO3)8
mp-780398,-1.75454012,Al2(SeO4)3
mp-772082,-1.567656,CaLaI5
mp-707874,-0.491434922,Ba7Cu3H17
mp-867164,-0.441713584,Pm3Sn
mp-690516,-2.150060319,Sr2Co2O5
mp-10056,-0.42959613,UCo3B2
mp-11495,-0.468267625,LuRu
mp-978498,-0.245895749,Sc3Al
mp-863358,-3.399199568,KAl11O17
mp-861985,-0.939234055,Er2IrRh
mp-671510,-0.545589292,Sc3Re2Si3
mp-673145,-1.95557878,LiCu4(PO4)3
mp-274,-0.29871301,Nb5Sb4
mp-505249,-1.027189845,Th(NiP)2
mp-410,-1.089734568,YbPt2
mp-653697,-0.318967448,Ta(CoTe)2
mp-4957,-3.171880797,CaNbO3
mp-768536,-2.16815848,Cs3LaO3
mp-866658,-0.903467841,H16RhN5(Cl2O)3
mp-760513,-3.915405917,La2UO6
mp-23850,-0.518985478,NaH2N
mp-9117,-2.262954937,Sr2YTlCu2O7
mp-560589,-1.829550811,NbSe2SN2ClF6
mp-703595,-0.530000027,Cd13I28
mp-18774,-2.567230421,NaFeP2O7
mp-768074,-2.674225447,LiTaWO6
mp-776731,-2.351860717,Na3Li3Fe2P2(CO7)2
mp-865736,-0.700555886,YbBiPd2
mp-775925,-0.900255989,Li8Sb7S19
mp-18820,-2.493766633,Sr3Fe2O7
mp-644504,-0.118742939,NdMg2Ag
mp-626293,-1.479017639,Sr(H8O5)2
mp-865031,-0.437884214,Mg2ZnB2Ir5
mp-675015,-3.417536127,Yb6U3O17
mp-622565,-0.174485567,Ho3Co
mp-603609,-1.444701772,AlH20Ru(Cl3O5)2
mp-777664,-2.926395871,Li2FeF4
mp-1294,-0.174846128,YCo2
mp-1019611,-2.891329053,Cs2Na2Sr(B3O5)6
mp-757671,-2.880905331,Li3Ti2(PO4)3
mp-769050,-1.480786329,Li2NbS3
mp-30437,-0.809282768,CaSnPd
mp-761910,-2.41126244,Li3Cu2F8
mp-22744,-0.561400528,Ta11(NiSe4)2
mp-545359,-1.349072641,KNa2CuO2
mp-510560,-4.321284443,CeF3
mp-674506,-2.956811413,NdPb7F17
mp-540619,-0.830652823,K3SnTe3
mp-19873,-0.833207354,DySiRu
mp-767798,-1.380965229,Ni17(AsO4)12
mp-5977,-3.864828853,Nd2Zr2O7
mp-554885,-2.763123064,Ba3Si6N4O9
mp-675680,-2.263593517,Sr(SbO3)2
mp-607225,-0.128348136,Mn2Ga5
mp-28947,-1.573629295,NaSn2Cl5