id,formation_energy_per_atom,pretty_formula
mp-353,-0.333802589,Ag2O
mp-677,-0.349801517,SrCd2
mp-1016819,-2.459325256,HfZnO3
mp-561132,-1.09739158,K2Ge2PbS6
mp-676448,-3.225876152,CsTiZnOF5
mp-27714,-1.640824762,H3OF
mp-17234,-2.899552687,KTiP2O7
mp-972042,-0.064249966,Zn3Cu
mp-28124,-1.613546704,H8NF5
mp-9227,-1.215528341,Ti3Se4
mp-23862,-1.264972761,BaHI
mp-1018698,-0.45640098,EuHgPb
mp-763993,-2.753587742,Li2TiVO4
mp-673101,-2.33842008,LiSn4(PO4)3
mp-557092,-3.225433067,Y3Si2Cl5O6
mp-12734,-0.84737361,NdAl3Pd2
mp-542609,-0.439302738,AgAsS2
mp-961659,-0.651133434,TiSiPd
mp-1691,-0.331626441,La2Ni3
mp-2481,-0.107819818,Mg2Cu
mp-998986,-0.317798324,Ti3Si
mp-6494,-2.411023708,K2Ca(CO3)2
mp-16837,-2.675551591,Nb3AgO8
mp-569867,-0.643306353,SrP3
mp-762506,-1.671160555,SrNiO3
mp-31062,-3.036743792,Y(PO3)3
mp-684015,-0.440390384,Bi9AuBr9
mp-757624,-3.539951016,Sr3La4O9
mp-997031,-1.968201844,MgCuO2
mp-766279,-4.018053388,Dy11Y5O24
mp-557385,-1.324873964,K4Ru(NO2)6
mp-864744,-0.739701971,HoMgRh2
mp-780858,-1.608908074,Fe4O7F
mp-753478,-2.215332183,BiOF
mp-13513,-0.522019408,SrNiGe2
mp-770560,-2.093473207,Na4Cr2C4SO16
mp-753279,-1.604794634,LiAg5F12
mp-29111,-0.430596807,Al2Fe3Si4
mp-557662,-3.375572159,Ca2Mg5Si8(O11F)2
mp-989559,-2.449303924,Cs2NaLiF6
mp-779104,-1.525650831,Rb4PbO4
mp-23495,-1.425517219,K2ZnBr4
mp-17558,-0.955544092,Ca5(GaAs3)2
mp-557227,-3.286679913,KCa12Si4S2O26F
mp-30900,-2.718811415,TaBiO4
mp-775429,-2.228594624,Ba4LiBi3O11
mp-19407,-2.226126095,MnWO4
mp-569450,-0.24488895,LiB6C
mp-997036,-0.913750644,CdAuO2
mp-975622,-3.19715429,Rb2Al2Si3O10
mp-776348,-1.965725245,Na4Bi2C4SO16
mp-755483,-3.355079519,Al2O3
mp-867700,-1.210812211,Li3CuS2
mp-1605,-0.423959682,Ag3O4
mp-10311,-0.663073202,ZrVGe
mp-28993,-2.16136308,La(AuF4)3
mp-768814,-3.354936,Y2GeO5
mp-766581,-1.563313502,Li4TiS4
mp-975271,-1.208330564,RbTi5Se8
mp-18695,-0.005239155,Fe15Co
mp-551243,-2.119298079,BaBiIO2
mp-20844,-0.507646347,Dy3(CuSn)4
mp-733849,-2.406198561,Li2P2H2O7
mp-643683,-0.499621125,Ba5(Ga3H)2
mp-9357,-0.599474902,Th(CrB3)2
mp-3437,-0.761097794,Ce(CoSi)2
mp-15297,-0.495562029,Hf6NiSb2
mp-15681,-0.132715397,CrAs2
mp-669339,-2.078739683,Cs2UTa6(Cl5O)3
mp-781691,-2.251207613,Li6Cr5O12
mp-866922,-1.581102434,Ca2SnS4
mp-1018138,-0.485710103,VI2
mp-568942,-0.478588836,Lu5NiPb3
mp-769734,-2.870986323,ScFeO3
mp-764159,-3.05321683,V2OF5
mp-754454,-0.653386077,Cd(AgO2)2
mp-699587,-2.479902514,MnSi6Pb8O21
mp-558368,-0.776563974,AgBi2S3Cl
mp-866604,-1.751380683,Ce3AgGeS7
mp-3795,-2.780389895,NaZnF3
mp-707317,-2.817710643,ErP4HO12
mp-551702,-2.486600344,Ba2CdReO6
mp-29620,-0.873645055,Sr5Bi3
mp-20586,-0.422563954,VCo2Si
mp-14535,-2.571898329,In(PO3)3
mp-504555,-3.857849624,KU2F9
mp-554946,-3.278540334,SiO2
mp-761501,-1.564175293,Mn2CoO6
mp-18726,-1.462845172,CrNiO4
mp-680301,-2.049131369,K3AsO4
mp-643370,-0.531682135,Ba2MgH6
mp-616026,-0.944565662,Sr3InP3
mp-24424,-1.47721242,BaHBr
mp-561253,-3.158477319,Ba3Lu(BO2)9
mp-505212,-0.880509447,Cs3AuO
mp-6166,-2.294506896,PrCuSO
mp-22804,-1.997594253,Na3In2(AsO4)3
mp-504640,-0.434176801,U3Ni3Sb4
mp-19024,-3.317345936,HoVO3
mp-583714,-3.231416348,Pr5O9
mp-14142,-2.809625103,TiZnO3
mp-18495,-2.947786897,SrLi(B3O5)3
mp-707081,-1.98290578,Ca3P4H20(NO10)2
mp-753806,-2.245877335,BSbO3
mp-2071,-0.184069097,Zn3P2
mp-13696,-2.296922304,EuCuO2
mp-571191,-0.221002301,LaZn11
mp-2879,-2.658927192,SrSnO3
mp-20576,-0.433281549,Ge2Pt3
mp-1423,-0.194155751,HoC2
mp-764799,-2.363316406,LiFe2(BO3)2
mp-29983,-1.965034321,Cs6Cl4O
mp-977195,0.21260265,Li3Er
mp-555490,-2.573219899,KRe2O4F7
mp-684890,-3.747705221,Tb4F15
mp-865561,-0.345168667,Y2AgRu
mp-766118,-2.311601956,BiP2O7
mp-558458,-3.43639869,Mg3Si(O2F)2
mp-27527,-0.099979614,Te2AuI
mp-27251,-1.636399699,Bi2TeO6
mp-13108,-3.802411239,SrHfO3
mp-16455,-2.155535027,BaNd2ZnS5
mp-706469,-2.472746562,Mn3(P2O7)2
mp-754976,-1.987405732,Cs2BeO2
mp-542856,-0.587091122,CeNiSnH2
mp-11282,-0.309442461,Be2W
mp-31486,-0.356824688,K2SnBi
mp-707440,-0.436761126,Sr2Mg3H10
mp-771918,-2.745120201,Li2MnPO4F
mp-849549,-2.684836071,Mn12O5F19
mp-112,0,Y
mp-631441,0.700438147,NbBi2Mo
mp-780532,-2.358274421,Li2FeO2F
mp-769539,-2.378951467,Li7VGeO8
mp-24817,-0.315315523,LiBeH3
mp-21813,-0.430556864,U2Nb3Ge4
mp-1018139,-0.6664646,HoNiBi
mp-19181,-3.091417173,BaHo2NiO5
mp-10049,-0.216012015,MnAsRu
mp-570491,-0.360665828,TaNi3
mp-766607,-1.940827051,Na7Mn16O32
mp-781634,-3.882738075,HfZrO4
mp-873,-0.252010858,VPd3
mp-978744,-0.381648361,SmBi3
mp-540940,-0.675402313,Ti(TlSe)4
mp-781864,-2.068651192,LiCu2F5
mp-1018040,-1.254380604,MgSe
mp-763578,-1.263461831,Li4(NiO2)5
mp-22885,-0.793045681,XeF2
mp-973958,-1.551164205,KRuO3
mp-20199,-0.826856681,PPbS3
mp-780875,-1.967632935,Mn8O13F3
mp-557132,-1.925473517,Os2O3F7
mp-1002219,0.160094065,TlSb
mp-570050,-0.656175103,Yb2Sn
mp-18634,-1.789305059,CdSO3
mp-2313,-0.076594227,MgIn
mp-640058,-0.67305307,PbI2
mp-778430,-2.069874656,K8Al2O7
mp-573743,-1.167469449,Ce3CI5
mp-753486,-1.671402635,BaCaI4
mp-687096,-1.799203043,V2Cu2O7
mp-849776,-1.477058513,InH10C3O11
mp-643547,-1.743776542,CoH2SO5
mp-7375,-2.870989936,KNbO3
mp-22464,-0.599920873,NaO3
mp-559607,-2.804004882,TiTlPO5
mp-2616,-3.611508922,NpO2
mp-753883,-3.095610267,La4Bi2O9
mp-776659,-2.790556951,LiVPO4F
mp-721583,-1.360497944,CdH2SeO5
mp-5360,-2.708107932,Ba3Nb16O23
mp-17485,-0.932529134,Ho2Si3Rh
mp-395,-0.485164481,ZrAl3
mp-40189,-2.686636428,BaLiLaTeO6
mp-22239,-0.551751485,GeRh
mp-756979,-1.560637634,Rb3ClO
mp-23798,-1.717718175,H4OF2
mp-625409,-2.301994316,Sm(HO)3
mp-758376,-2.483451535,Li3Sn2(PO4)3
mp-22147,-1.559961242,HfPbS3
mp-19285,-2.209034998,Ba(FeO2)2
mp-771265,-1.928988374,TiMn9O20
mp-980669,-0.235270922,TmLuCo2
mp-554041,-2.964704957,Na2Al2B2O7
mp-541837,-0.383904817,Bi2Se3
mp-31266,-1.476242378,YPS4
mp-510380,-0.18068108,Mn3CuN
mp-31385,-0.707698131,Er5Sn3
mp-5259,-3.650853738,RbAlF4
mp-780206,-2.179519838,LiFePH2O5
mp-999256,0.824592995,Sc2MnC
mp-972631,-0.7843307,Zr2Co12P7
mp-21836,-0.617132808,K2In12Se19
mp-754540,-1.159788944,CaPbI4
mp-974571,-0.009709724,Mn3Be
mp-19448,-1.219021427,Ni3TeO6
mp-615746,-2.82738325,RbBiF4
mp-1101,-1.502719642,TmAs
mp-767746,-1.969284264,Li12Mn2Fe3O16
mp-626275,-1.461764559,Ca(H8O5)2
mp-28505,-0.897693581,Ba(AlTe2)2
mp-752947,-1.670281855,NaTiS2
mp-560675,-2.33167907,K6Cu(SiO4)2
mp-757403,-1.303345542,Na7Cu7O13
mp-849730,-3.229191038,Na2Ti4O9
mp-23475,-1.685684671,Rb2PbCl6
mp-22481,-0.115187212,KIn4
mp-510401,-1.594552546,GdP
mp-631396,1.492944105,KFeTc2
mp-770952,-2.378966413,Li4Co3Ni(PO4)4
mp-12775,-0.542624057,ThRu
mp-17020,-2.199662156,TiTl2(GeO3)3
mp-4855,-1.8674667,Li2SeO4
mp-972156,0.023976742,TbY3
mp-18578,-1.70254318,TlZnAsO4
mp-18849,-2.465912168,Fe2P2O7
mp-769477,-2.262788616,Na3Mn2P2(CO7)2
mp-775299,-2.233773856,FeCo(PO4)2
mp-20001,-0.861915335,SrSnPt
mp-684969,-2.311939691,Sc2S3
mp-38103,-1.117502609,NaClO4
mp-2084,-0.619878653,Si5Ir3
mp-756656,-3.387026512,Gd3InO6
mp-764379,-2.853188101,V2O2F3
mp-755298,-2.430747208,Li4NbO4
mp-5489,-3.771485191,LuTaO4
mp-574112,-1.899112255,Ti(AlCl4)2
mp-866158,-0.071501807,YLuMg2
mp-699431,-1.599949992,AlH4(SeO4)2
mp-764500,-2.264824792,Li8Fe(O2F)2
mp-762165,-1.118254031,Li3(NiO2)5
mp-555059,-2.42563902,TcSb(OF4)2
mp-557738,-1.897809807,Li3BiO4
mp-976293,-0.637560989,NaCdO3
mp-567370,-1.842251843,Ce3Se4
mp-628680,-1.398525616,K5Th(PS4)3
mp-556390,-2.709406059,Rb10Si6O17
mp-676349,-0.504217838,Ga7(CuSe4)3
mp-769953,-3.789166787,Tb2Ti2O7
mp-554451,-3.456425349,BaFeF4
mp-17741,-3.226295788,Sm2ReO5
mp-27315,-3.994392859,CaTiF6
mp-22826,-2.777919926,KNb8O14
mp-768907,-2.748690967,Sr3TeO6
mp-1720,-0.201673151,SmRu2
mp-569860,-0.482439873,Nd(NiSn)2
mp-976592,0.109064697,K3Ag
mp-758327,-1.912323375,Sr7Bi23O40
mp-27800,-0.083023954,K4Ge23
mp-756541,-1.738470878,K6YO4
mp-774174,-1.903490105,NaMn2O4
mp-754369,-1.776546329,Na4MgO3
mp-568430,-0.072094508,BaRh2
mp-766009,-4.026158175,Y11Tm5O24
mp-10052,-0.913026796,TiAs
mp-4873,-3.127416508,Ce2TeO2
mp-13836,-2.259746152,U(RhO3)2
mp-1709,-0.071623732,U2Ti
mp-979269,0.044403109,Tl3Cd
mp-985299,0.974391322,Ag3N
mp-974523,-0.343497193,NdErTl2
mp-7650,-3.008701073,RbScO2
mp-16272,-0.649702287,Ce(FeP3)4
mp-6121,-3.252428122,BaY2ZnO5
mp-999473,0.511697541,ZnN
mp-9390,-0.683568755,ErCuGe
mp-699459,-1.595612666,CsLiH4S2(NO3)2
mp-764918,-2.307443332,Mn2Fe3Ni(PO4)6
mp-9396,-1.335083994,HfTlCuS3
mp-775752,-2.531755984,Li6VSn3(PO4)6
mp-703468,-1.965426455,Na3SiH5O6
mp-27839,-2.170644174,K2TiCl6
mp-585338,-2.549060491,Li3Mn3(PO4)4
mp-11561,-0.86465183,TbRh
mp-554066,-2.685996218,Ba3Lu2Zn5O11
mp-630851,-0.242611737,Cs3NaPb4
mp-961721,0.037144762,HfBiRh
mp-754535,-2.589360704,LaAgO2
mp-631294,0.644814654,HfMoSe
mp-1018059,-0.14821799,GaSb
mp-1013762,-3.018146588,LiTi2P2O9
mp-30851,-0.948519711,Ti3Pt5
mp-981539,-0.815381542,Hf2IrPd
mp-998601,-2.554273737,KCaCl3
mp-677162,-0.549527507,Yb(BiTe2)2
mp-779551,-2.319030202,Ba4Br6O
mp-555779,-1.139974093,ZnS
mp-626587,-2.097957556,Al(HO)3
mp-12546,-0.090519587,TiCu3
mp-569961,-0.848260303,Sr8Mn2FeN8
mp-10069,-0.686695572,Ce(P3Ru)4
mp-976010,0.384393398,Li3Cr
mp-972517,0.023593052,SmY3
mp-561390,-2.751905838,LiYb(PO3)4
mp-606617,-2.019047993,CuSb2(XeF8)2
mp-707200,-2.477778764,Na4P4H2O13
mp-559168,-1.383708343,Sb2(KrF4)5
mp-757106,-2.414751595,LiSnPO4
mp-30111,-1.623281745,BaLaI4
mp-757966,-2.481489183,Li3Sn2(PO4)3
mp-771411,-2.933993763,Sr3GeO5
mp-975115,-2.176198264,RbTcO4
mp-568055,-1.01659802,Nd(PRu)2
mp-19205,-3.322038955,ErVO3
mp-17473,-0.495671343,Na2Al2As3
mp-569650,-0.880526611,Ho(GeRh)2
mp-505824,0.04684404,Cs2PdC2
mp-767525,-1.173633084,Li6SbS2
mp-18139,-0.415818639,Na5SiAs3
mp-30870,-0.181560251,SmZn12
mp-27731,-0.582948216,HfH2
mp-755003,-2.748411686,LaBiO3
mp-5926,-3.742871801,KCaF3
mp-752930,-2.294968158,LiCu(PO3)2
mp-29011,-0.339255683,BiTePd
mp-775929,-2.864730153,La2Nb2N2O5
mp-775656,-2.529053231,Li4Mn3Nb2V3O16
mp-989605,-3.005659128,Cs2RbInF6
mp-8090,-2.036677767,Cu2P2O7
mp-30242,-2.606066641,Mg4H2O5
mp-28889,-0.236060437,Hg5(SbI3)2
mp-866863,-1.725942003,Ca3SnS5
mp-3138,-0.378831763,Na8SnSb4
mp-616615,-0.612198756,Hf8MnTe6
mp-19220,-2.908254934,CaSi2NiO6
mp-705670,-1.616741399,V2Cu2O7
mp-13405,-0.446170096,Lu(MnGe)2
mp-733854,-2.306962673,K2In2P2HO10
mp-769502,-2.413459256,Li4Nb2Fe3O10
mp-780178,-2.686759217,Li8TiMn3(PO4)6
mp-553990,-1.474714571,Ba4B2N4O
mp-767553,-0.802947379,Li7Sb2S
mp-972170,0.024680157,TbY3
mp-29244,-0.225000349,Cd2P3I
mp-540805,-1.813258532,Ba2GeS4
mp-6787,-2.808845964,RbLiB4O7
mp-12595,-0.19158373,MoRh
mp-23552,-1.509954676,Er(IO3)3
mp-21041,-0.593397165,Tb(FeP3)4
mp-867335,-0.514917555,K2SbAu
mp-30755,-0.741490707,La2Sn5Rh3
mp-542501,-2.88579615,Rb2U3(TeO7)2
mp-1008568,0.034041702,ZrTi2
mp-22293,-0.638940727,PrZnSn
mp-864598,-0.212193269,LiMg2Ag
mp-27882,-1.795493614,Cs2GeCl6
mp-762623,-2.57067611,LiFeSiO4
mp-29554,-0.472647439,WBr5
mp-556087,-2.093948835,Pr6S4N3Cl
mp-849604,-1.560177969,Na4CrO3
mp-532727,-3.196937534,K2YZr(PO4)3
mp-778065,-1.771636474,Ga3NO3
mp-505628,-0.368968872,Cr3IrN
mp-1013544,-0.916378998,Ca3SbAs
mp-12947,-0.180713528,LaMgCu2
mp-631703,1.299968363,BaRe2Sn
mp-18712,-0.42979674,Mg3Pd
mp-782047,-2.736103833,Ca9La5Cl33
mp-753650,-2.816461375,BaLaCl5
mp-22577,-1.827476718,Pb3SO6
mp-753477,-1.184966522,Li3BiS3
mp-414,-1.582322834,LuSe
mp-7430,-0.463545381,Ca(CdSb)2
mp-780636,-1.949129156,Mn3O5F
mp-604496,-0.780875852,CeSiHRu
mp-356,-0.046930193,Nd2Co17
mp-541040,-3.292833422,Y2Be2GeO7
mp-735556,-1.638777439,Na2CoH8(CO5)2
mp-867607,-3.943531919,Sm3Y5O12
mp-555342,-2.812539574,Na2CaSiO4
mp-555021,-1.568300279,TePbO3
mp-12374,-0.888823181,CeSnRh
mp-6983,-1.052261419,NaAgO
mp-5853,-1.336282931,LiSi2N3
mp-772089,-2.806853412,SrLaCl5
mp-550306,-1.660094235,YCu2Bi2(SeO2)2
mp-768313,-3.048171075,Dy2TeO6
mp-704504,-2.373599741,YbMn2O5
mp-761842,-3.539222985,Hf3SnO8
mp-675798,-4.012550029,NaHoF4
mp-566334,-2.278826315,Sb3C2N(OF8)2
mp-769599,-2.229699671,NaCrPCO7
mp-505310,-2.049702799,Sr3Fe2Cu2S2O5
mp-714960,-2.332345316,VO2
mp-8758,-0.298069097,SmRhC2
mp-3329,-0.697316448,Tb(NiGe)2
mp-38238,-0.225809724,Ag2O
mp-543036,-2.943152141,KDy(PO3)4
mp-555424,-2.885076198,CaNb2(P2O7)3
mp-14344,-0.426563625,Yb2(NiB2)3
mp-772200,-1.964084906,Na6Fe2As(CO4)4
mp-770750,-2.358612643,Li3Al(FeO3)2
mp-15178,-0.323484487,Lu4C7
mp-30972,-1.870268613,Na2Sb4O7
mp-569661,-0.281619816,YbInCu4
mp-24723,-0.192399859,TaH2
mp-570609,-1.549082767,TlGaCl4
mp-7159,-0.293165788,La3TlC
mp-972387,-2.834027386,Sr2MgGe2O7
mp-775022,-2.343254504,LiFeOF
mp-773173,-2.283196869,Ta2Co4O9
mp-554022,-2.390311434,Sn2P2O7
mp-1019721,-2.769066741,CsMgBO3
mp-568456,-0.78433731,Tb2(GePt3)3
mp-16165,-3.747439744,Ho3Si3O10F
mp-28665,-0.841743889,NdSi2Ru
mp-764721,-2.972688367,LiVOF3
mp-31190,-0.576511378,Lu2Ga3Co
mp-755797,-3.244830585,LiTi8O13
mp-683956,-2.030694778,SbSNF6
mp-685926,-2.367766339,Nd10US16
mp-866638,-0.389304077,KSc(BH4)4
mp-5646,-0.837670392,NdSnAu
mp-2699,-0.380850415,CaSi2
mp-559091,-3.284982528,SiO2
mp-569347,-0.758277443,Nd5Sn4
mp-18051,-3.877650292,La2TiO5
mp-697671,-0.472327437,Ba6Mg7H26
mp-556291,-1.680116684,Ba3Sn2S7
mp-28146,-2.330919673,LiGa5O8
mp-555818,-0.802197355,Cu2SiPbS4
mp-780131,-2.337537913,Li7MnNi3(PO4)6
mp-555505,-2.417554276,Na2YbC2O6F
mp-560320,-2.938978027,KBa2(PO3)5
mp-976247,0.390781171,H(C3N2)4
mp-540440,-2.264729502,FeP2O7
mp-8543,-0.508162238,Na3AlAs2
mp-542678,-1.923153832,AlAs(H2O3)2
mp-22442,-2.406635008,Ba2NaOsO6
mp-1473,-0.020867647,Fe7W6
mp-554501,-2.408433836,Ba5Os3ClO15
mp-28267,-0.348677763,Na7Al2Sb5
mp-1025,-0.721555047,ThAu2
mp-9166,-0.806282823,MgCN2
mp-9089,-2.146457726,CsTmS2
mp-29107,-0.489642143,Rb2Hg3Te4
mp-30224,-2.075539159,Si3(Cl4O)2
mp-775753,-2.49628348,MnSn(PO4)2
mp-867895,-0.230349761,Sm2CuRu
mp-733613,-0.541647041,H6AuBrN2
mp-774189,-2.511827913,Li8Mn7Fe(BO3)8
mp-766035,-1.645579254,Bi12Cl5O16
mp-17768,-0.180094072,Nb3Cr3C
mp-2850,-0.216387206,B2Os
mp-23270,-0.620176387,Th3Bi4
mp-7631,-0.204975648,SiC
mp-765521,-2.958894643,LiVOF3
mp-571626,-0.243625317,Mg3Ga7Co2
mp-556210,-1.802020135,Bi2CO5
mp-754134,-3.901275958,HfZrO4
mp-772516,-2.360516653,LiCoPO4
mp-774257,-2.059993076,Ni3Sn(PO4)4
mp-7564,-0.455811302,Nb3Te4
mp-1779,-1.67172976,YbTe
mp-775161,-3.127494063,Li2Ti3VO8
mp-5696,-2.543234127,La2Cu2O5
mp-972510,-0.838612453,SmTmRh2
mp-29922,-1.990948042,Sb5PO10
mp-571561,-0.465297226,Sm(NiSn)2
mp-1475,-0.133564299,Be12Mo
mp-971706,-1.226075465,ZnBiO3
mp-766352,-1.649806742,BaCa2I6
mp-978815,-0.33623516,Sm2TlZn
mp-705056,-2.705195153,LiVP2O7
mp-571414,-0.44815225,KNa(BH4)2
mp-530728,-3.733403344,Sc11Nb3O24
mp-29035,-2.51252585,Sr(YS2)2
mp-699485,-1.402601076,AlH12(NO5)3
mp-778830,-2.181729087,Li10Ti2Fe3Co3O16
mp-4929,-3.323494097,KBF4
mp-569100,-0.520665678,LaRh3
mp-35432,-2.015989276,Cr2FeO4
mp-556423,-2.917701751,Na2Si2O5
mp-30964,-0.230160744,Dy2Zn17
mp-560715,-2.165184499,Sn5(PO5)2
mp-764080,-1.658169153,CoOF
mp-504985,-0.814911997,Ba(GaPt)2
mp-21205,-0.884073167,Tm2InPd2
mp-32899,-1.485435531,Li2S
mp-4165,-2.28760749,TaNO
mp-557340,-1.8644243,Ge3Pb5O11
mp-14323,-3.602051141,Ba3Ho4O9
mp-626114,-3.112326073,U3(HO5)2
mp-13685,-1.081840331,Cr2S3
mp-15206,-0.790555733,Ho2Si5Ni3
mp-2183,-1.547737709,ThSe
mp-558267,-2.745520638,NaLiSiB3HO8
mp-961661,-0.760330182,ZrSiPd
mp-1749,-0.184563507,CaAl4
mp-1569,-0.23897102,Be2C
mp-776768,-2.289828713,Li4V5Fe3O16
mp-505171,-1.382265877,NaTiCuS3
mp-979713,-0.678619953,YHgPd2
mp-4500,-1.077628252,ZrNbP
mp-645592,-2.328824819,Nb3(BiO3)5
mp-695030,-3.11466336,La10Mg(Ga3O10)3
mp-755595,-3.850239043,Er2TiO5
mp-560028,-2.434299538,UTe6(OF5)6
mp-775153,-2.718184754,Li3FeOF3
mp-754586,-1.984354809,Li8BiO6
mp-684747,-1.621707452,Bi2O3
mp-625630,-1.405707066,TeHO3
mp-754542,-1.401320102,LiVS2
mp-32385,-1.914498731,Ni7(PO4)6
mp-1016840,-0.877635442,HgOsO3
mp-631342,0.476998373,MnTcPd
mp-558062,-1.843731211,K6Ti2S6O
mp-19932,-0.417442591,In4Se3
mp-758447,-2.697979598,LiTi(PO3)4
mp-571084,-0.811537947,MnBr2
mp-755363,-1.335532276,Ba3SiO
mp-28167,-1.586330317,Th6CoBr15
mp-23621,-2.559860661,NaBi(PO3)4
mp-867605,-1.752798184,Y(Bi5O8)3
mp-542041,-1.392221883,PH7CN2O5
mp-978548,0.025753186,SmEr3
mp-28670,-2.298600706,Ba2Bi2O5
mp-556172,-1.70176514,SiPb4(BrO)4
mp-542185,-1.445113211,NaCu4(AsO4)3
mp-4589,-3.46812363,PrPO4
mp-754624,-3.380620838,Al2O3
mp-11008,-1.012342068,BaPSe3
mp-740718,-1.157503794,AlH6N2Cl3
mp-1019739,-2.893745435,Eu2Ge(BO4)2
mp-980905,0.130536945,ZnSn3
mp-29092,-0.691258434,Ba3(GeN)2
mp-8558,-3.389653739,BaNpO3
mp-20715,-0.730214254,Pr2InGe2
mp-761936,-2.032029419,Li4Cu7(PO4)6
mp-33392,-2.404606982,Sr(CeS2)2
mp-850814,-1.865780688,NaSbO2
mp-12337,-2.836068579,NaLa2OsO6
mp-8982,-0.964594885,CaSiPt
mp-638553,-2.202965377,Ba2InIrO6
mp-973948,0.315971625,LiHf
mp-29556,-1.324903207,Tl2WCl6
mp-8812,-3.054748543,Rb2GeF6
mp-35530,-1.923475029,LiMn4O8
mp-3816,-0.422252921,Er6Ni2Sn
mp-28475,-1.456247524,H2Pb3O4
mp-560085,-1.688611731,Bi24Cl10O31
mp-19219,-2.517862724,Li3VO4
mp-972521,-0.866296139,SmGe
mp-758140,-2.707605713,LiTi(PO3)4
mp-707195,-2.565774315,KSiHO3
mp-1018661,-0.485595453,CePbAu
mp-706229,-2.377102487,Ba2La2Fe2Cu2O11
mp-5765,-0.410255826,Nd(BC)2
mp-583454,-2.392182298,Nb2Bi2PbO9
mp-891955,-3.00895772,Ca10V6O25
mp-30904,-1.792569219,Ba3(CrS3)2
mp-568082,-1.466980765,La3CuSiSe7
mp-568365,-1.126421953,Li6Br3N
mp-6495,-3.299855957,BaEr2ZnO5
mp-568526,-0.483405202,SrHg2
mp-865367,-0.480842662,Tm2NiRu
mp-753163,-2.916174805,HoIO
mp-18806,-1.829569677,Ni3(BO3)2
mp-21300,-0.667898422,Yb5Ge4
mp-13314,-0.923833976,ScTlTe2
mp-770610,-2.373110923,Li2AlCoO4
mp-779313,-2.502527847,Li7Mn8(BO3)8
mp-752435,-3.98329501,DyTmO3
mp-19332,-3.020019795,BaGd2NiO5
mp-505173,-0.725429251,NaZrCuTe3
mp-13496,-0.58612026,ZrPd
mp-984353,0.151301519,AsAu3
mp-774941,-1.089898754,Li(NiO2)2
mp-28538,-0.191648695,SiH3I
mp-10322,-1.532723445,BaHfN2
mp-438,-2.463697789,Nd2S3
mp-19276,-2.728285322,BaMoO4
mp-507,-0.500888005,SiNi2
mp-15669,-0.719011959,Ti3Te4
mp-721238,-2.462687297,Li10Sn(PO6)2
mp-976972,-0.271100824,HoTmCu2
mp-20111,-0.39164955,EuAl2
mp-30231,-1.888557901,RbGaCl4
mp-4664,-0.444105721,MnGeRh2
mp-28875,-0.274999568,Hg2P3Cl
mp-999437,0.115840775,Nb3Ni
mp-13501,-0.356180903,ErCoC2
mp-756660,-2.841856808,Li4Ti3NbO8
mp-755738,-1.088598801,Rb2O
mp-780298,-2.511990469,Li8Mn7Fe(BO3)8
mp-752928,-1.004318515,LiCoS2
mp-644318,-2.047662269,NaV3H6(SO7)2
mp-754955,-0.877082998,LuSiRu
mp-961731,0.661213926,NbInNi
mp-754283,-3.053859861,HoHO2
mp-763517,-2.136016777,Li4Ti3Co3(NiO8)2
mp-4656,-0.427648679,Y(Al2Fe)4
mp-971833,0.297696452,Tm3V
mp-754206,-1.813892884,LiBi3(ClO2)2
mp-5831,-1.658003055,Cu(SbO3)2
mp-23635,-0.661538657,TlRe6Se8Cl3
mp-22029,-0.223384719,MnNi2Ge
mp-722527,-1.747791356,AlH11SO10
mp-505551,-2.127687545,InPH2O5
mp-631375,0.719204276,ReSn2Se
mp-19400,-2.538890997,Sr2NiWO6
mp-774249,-2.305729191,Li3MnCr2O6
mp-554146,-1.674777802,K14In4O13
mp-776012,-2.696804563,Ti3FeCu2(PO4)6
mp-12719,-0.499805734,LiNdSn
mp-32850,-1.785523279,Tm2Se3
mp-27388,-0.554378443,Ba(SiNi)2
mp-999046,-0.057387492,Ti2InCo
mp-13250,-1.087663134,LaSnPt
mp-627601,-0.426404319,AgSbS2
mp-675252,-1.624650941,Yb2MnS4
mp-559025,-1.942033421,BaErAgS3
mp-772916,-1.589351138,Ba3(LaI6)2
mp-775448,-2.914381947,Li2Ti3NiO8
mp-14550,-2.658252811,TiCdO3
mp-776010,-2.347353286,Cr2Fe3Cu(PO4)6
mp-30250,-2.630278671,YAgO2
mp-642792,-2.172741897,BaBi2(MoO4)4
mp-757862,-2.60065395,K4Nb15O24
mp-768093,-2.26047593,VSO4F3
mp-977427,-0.514956082,Zn2PtRh
mp-31479,-0.860629995,Ca3(GaPt)2
mp-29097,-0.424201832,Hg3TeBr4
mp-27811,-1.865362561,Li2Te2O5
mp-631430,0.847381926,LaInW
mp-780387,-3.994277456,YbHfO3
mp-1013911,-2.488412754,Na2CoP2O7
mp-972422,-0.155069318,U3Ge
mp-557585,-3.059448,Lu(PO3)3
mp-634676,-1.04743065,KHS
mp-540920,-1.303937113,CaP2H20C4(N2O3)4
mp-622041,-0.638673171,ThInAu2
mp-5431,-2.374167945,BaTeO3
mp-755117,-2.267657509,Ba2IrO4
mp-26223,-2.501133976,Li4Cu(PO4)2
mp-677627,-2.744017342,Li3Nd3(TeO6)2
mp-570079,-0.377778344,Al5C3N
mp-12107,-0.856722387,TiPt3
mp-554859,-0.948090954,KGeAuS3
mp-3081,-3.373294208,BeAl2O4
mp-756323,-1.801508685,Li2CuAsO4
mp-28430,-2.461410897,Na2TbO3
mp-675654,-1.494497228,Cd2Bi6O11
mp-765603,-1.705193584,Li4FeCo3O8
mp-2625,-0.121826321,U2C3