id,formation_energy_per_atom,pretty_formula
mp-977444,-0.292575642,PaAgAu2
mp-555485,-3.147680725,Rb2GdGa(SiO3)4
mp-10488,-1.304025494,Cs2Ti(AgS2)2
mp-27626,-0.089631246,Ge19(AsI)4
mp-685257,-1.406461308,CdPbO3
mp-11706,-3.079746404,Ho2HgO4
mp-674459,-4.014336049,NaErF4
mp-27564,-2.411387268,Na4B2O5
mp-1008472,0.603168486,CdSiP2
mp-11984,-0.34742553,YMgTl
mp-770708,-2.433948691,Na3SiBSbO7
mp-573548,-0.503976509,La3(GaNi2)2
mp-779690,-1.213850367,Hg(TeO3)2
mp-510566,-1.932601823,La3CuSnS7
mp-642804,-2.044778332,KCu2P2H3(O4F)2
mp-641945,-0.655069719,Tb2Sb5
mp-556005,-1.13889457,ZnS
mp-37808,-1.86364048,Sc(TiN)9
mp-861511,-0.525975776,PuP3
mp-18833,-2.615994028,Sr3Cr2O8
mp-775263,-1.163684385,Li6CoNi9O20
mp-559575,-1.61641363,AsSe(IF2)3
mp-23092,-2.968820836,Ba2TaBiO6
mp-753405,-2.33893457,LiCuF3
mp-3195,-0.813641876,Sr11(CdSb2)6
mp-7531,-3.456316238,Ca4Al6O13
mp-676274,-0.35487112,Tl9SbSe6
mp-3125,-2.860975396,K3Zn2F7
mp-10152,-1.033809775,La(SiIr)2
mp-989622,-0.834473953,BaWN3
mp-30368,-0.687048872,Ca5Au3
mp-23700,-1.993128323,RbH2OF
mp-631319,1.046553919,LiTiRe
mp-20729,-0.467586622,LaIn3
mp-2402,-0.003001724,NaSi
mp-676341,-3.572980265,Na2UF6
mp-32314,-2.252770833,LiNiP2O7
mp-978511,0.218423424,SmPa3
mp-558637,-1.147163726,AgTeO3
mp-543056,-2.075161989,Mg7As6(HO6)4
mp-758044,-3.169353259,Li5Ti8O16
mp-31284,-0.063727161,NaSn5
mp-505055,-0.419294965,Na3B5Pt9
mp-744084,-1.681220249,MnAgH8(OF)4
mp-17025,-3.351983002,Sr3Y(BO3)3
mp-558703,-3.231619518,Al3Pb5F19
mp-756742,-3.955872676,Lu3AlO6
mp-1018086,-0.676956097,CePd
mp-781591,-2.45608167,Li3Co2(SiO4)2
mp-971837,-0.460618941,ZnCdTe2
mp-690702,-2.188915106,SnPHO4
mp-763336,-2.039544119,Li2Cr3CoO8
mp-705551,-1.659075363,Fe15O16
mp-705519,-0.870176662,Ni15O16
mp-22032,-0.692282927,TbInIr
mp-554818,-1.796122538,KTe3O6F
mp-13627,-3.31480442,Y3ReO8
mp-989643,-0.794759135,LaCoN3
mp-766931,-2.574611046,Li2Si2NiO6
mp-20820,-1.170761726,Pb(NO3)2
mp-626127,-1.185818087,H7NO6
mp-781507,-2.026363469,Fe4O5F3
mp-39684,-2.808404615,GdTiCdSbO7
mp-998367,-0.774546821,YReN3
mp-567970,-0.466262949,Hf3(Al2C3)2
mp-754005,-2.060293447,Mg(CO2)2
mp-4993,-0.843626196,TbSi2Ni
mp-554002,-2.115675158,Al(HO)3
mp-1017514,-1.08238521,MgSiN2
mp-567437,-0.278848135,Pd(Se4Cl)2
mp-569522,-0.361146053,MnP4
mp-540833,-1.935529598,V2Co3O8
mp-1018165,1.486102531,PtC
mp-555439,-3.035785559,CsLi3F4
mp-752656,-3.595844683,BaLa2O4
mp-17461,-2.859968715,NaTiP2O7
mp-13909,-0.122738525,K4Sn23
mp-16828,-2.834905952,Li3B7O12
mp-24396,-1.647747432,MgH14SO11
mp-705134,-2.070865067,In2(MoO4)3
mp-771189,-3.451262268,Ba4Ti3O10
mp-1020060,-2.066575256,LiB(S2O7)2
mp-35907,-1.481247271,La5TlTe8
mp-554686,-2.089525504,MgAs2(XeF9)2
mp-567347,-0.371499423,Li2AgSn
mp-12878,-3.121428616,Sr2YSbO6
mp-927,-0.113419661,CuP2
mp-754213,-2.461422162,Li2ZrCuO4
mp-757156,-2.482000827,Sn(PO3)4
mp-31250,-2.308239233,BiBO3
mp-30143,-1.839281416,U(IO4)2
mp-35143,-1.843731155,BaNbS3
mp-7289,-0.717711405,K2Te3
mp-26630,-2.975565067,TiP2O7
mp-9855,-1.610704065,KHfCuS3
mp-540313,-2.57306257,LiFe(PO3)3
mp-972993,-0.682068576,LiSmAu2
mp-7083,-0.756258491,LaSi
mp-776361,-2.146466116,Ti2N2O
mp-998198,-1.937668433,RbCaBr3
mp-13478,-0.771928408,SmCoSi2
mp-18926,-2.749908195,La3Ni2O7
mp-740750,-2.249472275,Na4P4(H2O5)3
mp-624299,-0.394884373,Cu7S4
mp-1394,-1.11741451,Rb2O
mp-31411,-0.207094532,Th(Al2Cr)4
mp-19746,-1.213965211,NbPbS2
mp-20972,-0.202148661,YbIn5Co
mp-30123,-0.937098323,Hg2SeO5
mp-25385,-1.101817968,Li(CuO2)2
mp-8736,-1.242754218,Sr(Mo3S4)2
mp-770680,-2.210971026,Li9Mn2AlO8
mp-20661,-0.576017833,Ti2PbC
mp-29303,-0.758117031,Tl4Sn5S12
mp-559391,-3.39190881,Pr3Si2Cl3O7
mp-762224,-2.242387559,Li4Cu3Sb(PO4)4
mp-866296,-0.61999876,AlCuPd2
mp-31139,-0.437595844,TbNi
mp-763931,-1.649351293,CoOF
mp-29920,-0.846154948,Rb5Au3O2
mp-755666,-2.515767087,Yb2TeO2
mp-11564,-0.98791344,TmRh
mp-505070,-3.489133741,CeTa3O9
mp-772959,-3.175626557,Er2P4O13
mp-558330,-1.099729463,IClOF
mp-632802,-1.98672383,Ba2CaTlCu2O7
mp-542382,-0.15243368,ThTl
mp-8490,-0.277536667,LiGe
mp-28234,-3.448519607,CaAl12O19
mp-777546,-1.359285589,NaSnO
mp-29060,-1.017022581,Ba5(SiN3)2
mp-861587,-0.446049075,Pr2In8Pd
mp-554025,-0.828356724,SNF
mp-17093,-1.01141775,ErSiPd
mp-754377,-2.319081415,K4TiO4
mp-9929,-0.612951351,ZrCuSiAs
mp-7366,-0.360347799,Sr(AgSn)2
mp-985277,-1.569066279,Ce2USe5
mp-11398,-0.371737018,Ga3Ni5
mp-10486,-1.690035616,Cd2As2O7
mp-557027,-2.988319297,Rb2Be2Si2O7
mp-764344,-2.606297934,Li2FeSiO4
mp-1514,-0.579627229,UB2
mp-989782,0.00581289,Cu
mp-771545,-1.967968564,Li4Mn5CoO12
mp-761716,-1.760615053,MnFe2O3
mp-10965,-0.610806915,DyAgSb2
mp-638141,-0.4836942,LiSn5Rh3
mp-18642,-2.483115863,Ca(YS2)2
mp-505207,-0.315748197,Sm2Co7B3
mp-3803,-0.50241017,Ta4AlC3
mp-866115,-0.659342075,Be2PdRh
mp-638051,-0.653102753,LuNiGe2
mp-8256,-2.049346247,ZnPtF6
mp-761872,-1.702710316,Na2Sn2O3
mp-10118,-0.403142567,Mn3B4
mp-753257,-2.222700563,LiCuF4
mp-561413,-3.66106992,Rb2Tb3AlF16
mp-772596,-1.238950632,Li2FeNi3O8
mp-10476,-2.667927954,NaEr(SO4)2
mp-24144,-2.112879182,Na5ScH4(C2O7)2
mp-27579,-2.622515397,Na4P2O7
mp-7572,-2.538928778,MgSO4
mp-23497,-0.944321386,Li2ZnI4
mp-37949,-0.534611951,NdSiAg
mp-558660,-2.73491828,Mg2BiPO6
mp-557561,-1.870385653,Sm6Si4S17
mp-765731,-2.747808439,Mn3OF5
mp-22489,-0.606359479,HfCuSi
mp-743573,-2.70292571,KBaFe2(PO4)3
mp-862967,-0.463707234,PmTlRh2
mp-4738,-0.711302347,PrScGe
mp-18795,-1.939309387,Mn3TeO6
mp-975385,-0.610270007,RbBO3
mp-22232,-0.521922,TlInSe2
mp-10572,-0.82121975,NaPN2
mp-767715,-0.871064188,Li34(Sb3S2)3
mp-23582,-2.000459302,KLi6BiO6
mp-10415,-0.810237576,Yb3(GePd)4
mp-971820,0.346519708,ZnH
mp-5914,-0.966107714,Li3BN2
mp-560331,-1.656613504,K2ZrS4
mp-754011,-1.591711935,Li(BiO2)3
mp-981387,0.138872104,Hg3Bi
mp-779608,-3.117972307,Ba3(BO3)2
mp-540146,-2.373884544,MnPO4
mp-6276,-2.130878965,K2Cd2(SO4)3
mp-975647,0.01793712,Pr3Ag
mp-6598,-2.500568703,K2Cu(PO3)4
mp-9673,-0.42281264,K2NiAs2
mp-978489,-2.19391405,SiPbO3
mp-705495,-2.326983428,CaB3H5O8
mp-541096,-3.253431698,CsUNbO6
mp-600067,-3.262473999,SiO2
mp-780764,-2.330508155,LiCuP4O11
mp-16813,-1.080616028,BS4N4F3
mp-5019,-0.480062739,YCo3B2
mp-695816,-2.511110253,LiFeP2O7
mp-757791,-3.982959134,SmY15O24
mp-559984,-1.301444009,Rb8AlAu3O4
mp-7958,-3.027791031,KLaO2
mp-10495,-1.71323164,NdCuS2
mp-1357,-0.582557992,P3Rh
mp-865129,-0.71239443,Lu2MgGe2
mp-16744,-0.357205778,Y(Al5Fe)2
mp-23444,-1.892687319,AsCl2F3
mp-11100,-0.381461648,YbIn5Rh
mp-770667,-2.238687683,Li24MnCr11O36
mp-777853,-1.355317513,Na9Cu2O7
mp-653450,-1.119495103,CuAg7As4ClO14
mp-690112,-1.687007378,H(WO3)2
mp-6404,-1.071980095,BaCa2(PN2)6
mp-631495,0.829121402,BaYSc
mp-643260,-0.327986963,Na2H4Pd
mp-775274,-2.071782299,K2CrO4
mp-27047,-2.317176583,Li2CuPO4
mp-866833,-1.100107478,CaSnS3
mp-14941,-3.269373075,Al2Pb3F12
mp-568945,-0.177455829,DyCo3
mp-31153,-0.912539632,CaGePt
mp-771328,-1.516350155,Rb4PbO4
mp-781671,-1.830453633,Na6Ni2As(CO4)4
mp-34569,-2.151372086,Mg(FeO2)2
mp-867929,-1.881920135,Sm3SiAgS7
mp-865015,-0.582875939,MnSiRh2
mp-975424,0.036558668,Rb(Mg4Al3)4
mp-753403,-1.591633055,LiCu2(CO3)2
mp-977325,0.235442736,Np3Be
mp-776475,-3.41646916,Al2O3
mp-753594,-2.233932098,BiOF
mp-23232,-0.35013413,3-Feb
mp-974415,0.989684079,Re3Pb
mp-867583,-1.406562527,AgSbO3
mp-561202,-0.853893977,K6NbAs3O
mp-1034,-0.097515823,Th2Cu
mp-9351,-0.776702873,LuGeAu
mp-763022,-2.219655307,FeOF
mp-772077,-1.526692122,BaYI5
mp-1018893,-0.567910923,PrCuSn
mp-754912,-1.347551374,LiCuO2
mp-567538,-0.296786135,YbCu2
mp-1882,-0.120990924,CaCu5
mp-14387,-3.711856335,Tb3Al5O12
mp-21719,-0.626235993,Sc2V3Ge4
mp-8603,-1.001792443,RbAgO
mp-769026,-1.834881303,Li2BiO3
mp-28275,-2.534345952,Rb2PrCl5
mp-704204,-2.592077773,Li2MoP4O13
mp-754920,-4.301694535,BaYF5
mp-6416,-3.2865381,Ba5Er8Zn4O21
mp-1013553,-0.784321727,Sr3AsP
mp-28516,-0.506941431,LuMnGe2
mp-773598,-2.548340227,TiFe5(PO4)6
mp-95,0.00672522,Sr
mp-680087,-1.139962933,ZnS
mp-2945,-1.239861735,Yb(Mo3S4)2
mp-778079,-4.323321337,BaYF5
mp-28222,-1.151118812,Rb3Sb2Br9
mp-769543,-2.615385531,Li3Mn2(SiO4)2
mp-776008,-2.275239405,TiFe2Ni3(PO4)6
mp-558491,-3.56158504,BaAlBO3F2
mp-849797,-0.35014327,B6H10C2SBr
mp-568186,-0.317748863,YRu2
mp-27938,-0.652985493,Tl6SI4
mp-10834,-1.953657396,RbNd2CuS4
mp-626219,-1.014762044,H5ClO6
mp-5878,-2.832272486,KZnF3
mp-765172,-2.051683892,Fe3(OF)2
mp-9600,-1.364020267,Cu2GeO4
mp-766558,-1.903720835,NaMn3O6
mp-615850,-1.256575413,Pb2Se(NO4)2
mp-974572,0.406429032,Rb3Si
mp-753171,-2.578399415,Li2CuF4
mp-504617,-0.553502361,Ti3Co5B2
mp-492,-1.907854605,TiN
mp-699466,-1.206087259,ZnPH7C2N4O5
mp-978785,-0.64371511,Si4MoPt3
mp-27291,-2.326078756,PaCl4
mp-19402,-1.989710801,V4Ag2O11
mp-971826,0.418424688,Tl3H
mp-779720,-2.467354909,Li5LaO4
mp-13222,-0.167862531,SmMg2Cu9
mp-626568,-2.078426915,Al(HO)3
mp-5901,-0.621207474,CeMnSi2
mp-559798,-2.130057019,NiF2
mp-778,-0.457520821,Fe2P
mp-542704,-1.605817516,CsHCO2
mp-582080,-2.540701164,Cs3LaCl6
mp-559061,-1.674962689,K2Hg2SCl4O3
mp-30243,-2.502859782,Mg3(HO2)2
mp-1006887,1.983565718,CdC
mp-757218,-1.438861842,K4Na2H18Pd(IO10)2
mp-865896,-0.36836689,YbPmAg2
mp-559251,-1.118347483,K3Cr2(PS4)3
mp-4452,-1.067401717,Cd(GaS2)2
mp-2403,-0.98348237,YPt3
mp-754646,-3.070734216,Dy2Ge2O7
mp-774413,-2.50491287,MnV3(PO4)6
mp-771081,-2.547745774,Li3Ni(BO2)5
mp-973434,-0.84974222,Hf2IrRu
mp-569072,-1.017673283,La3B(CBr)2
mp-1722,-0.024532803,Zn13Fe
mp-973886,-0.627223792,Lu2CoRh
mp-735489,-1.705149716,KCaCrH10C6O17
mp-780534,-0.35549997,Rb(BH)5
mp-631946,0.584146781,SnOs2Ru
mp-24658,-0.750139023,SmH2
mp-30301,-1.124430966,LiClO4
mp-770427,-2.83413795,BaLaCl5
mp-6441,-2.790828593,K2PO3F
mp-745148,-2.38505822,MnP2HO7
mp-769096,-0.306522797,MnP4
mp-10924,-0.631696458,Mg(Co3P2)2
mp-555056,-0.872183853,SbS2NCl6
mp-8870,-2.402799186,LiMgAsO4
mp-30855,-0.719933075,UPt3
mp-546679,-3.096001851,Nd2AlNO3
mp-1697,-1.106636878,TbPt2
mp-9969,-0.8354512,ScSi
mp-7609,-2.219815465,SbOF
mp-7863,-1.724595131,Rb2Sn2O3
mp-982619,0.00249605,Ho3Tm
mp-29626,-1.08784193,Na4Sn3S8
mp-11189,-2.972311353,Li2MgSiO4
mp-780312,-1.975393848,Li5(FeO2)4
mp-767952,-2.189972786,NaMnPCO7
mp-13765,-0.37990334,Ce3Co11B4
mp-756444,-3.168813258,Ca2Ti6N2O11
mp-555617,-1.39005214,Ce10Si8O3
mp-16135,-3.079993654,Sm3NbS3O4
mp-755928,-0.454533628,Cu2O3
mp-4053,-0.823660441,YbSnPd2
mp-625616,-1.25167836,H9BrO4
mp-1002206,0.537289993,SiC
mp-558911,-0.923299081,Cs2Co3S4
mp-867174,-0.400624453,SrLi2Pb
mp-865210,-0.044792048,TmLuMg2
mp-29292,-0.167709887,B10H13
mp-554658,-1.657411149,Cu(SbO3)2
mp-683943,-0.40514466,Na2MoC3SeN3
mp-642823,-3.253417571,Dy2V2O7
mp-3368,-2.997440036,LiNb3O8
mp-12860,-1.623715128,Na3Cu2SbO6
mp-27953,-0.356618919,Mo2N
mp-21839,-0.320331014,Ba4Ge20Au3
mp-581425,-1.14002324,ZnS
mp-540064,-2.421177021,LiCo(PO3)4
mp-29457,-2.508975152,Ba2Cu5F14
mp-764552,-2.375481255,LiFe2(BO3)2
mp-999396,0.042252665,Nb3Ni
mp-554678,-2.527985896,CaGe2O5
mp-1020146,-2.79991012,Na2LiB5(PO7)2
mp-770125,-2.821080781,BaLaCl5
mp-999454,-1.340588901,NaVS2
mp-9907,-0.610450994,SrAs3
mp-557998,-1.9119088,Dy3CuSiS7
mp-774946,-2.383073737,Li2V3SnO8
mp-28925,-0.973699354,Ca4(PPd)5
mp-22967,-1.058423127,Li2FeBr4
mp-6068,-2.869985894,Sr2TbRuO6
mp-19200,-2.991157859,Tb2Mo2O7
mp-708992,-1.419884644,AlH20C2S2NO14
mp-3849,-0.70657544,TlFeS2
mp-505421,-1.685735682,Mn2CuO4
mp-756812,-2.233469726,Rb3ErO3
mp-989565,-2.84648339,Rb2TlGaF6
mp-23454,-1.087643192,CsAgBr2
mp-567948,-0.909724447,Rb2Pd(IBr2)2
mp-961719,-0.377584545,HfAsRh
mp-2781,-0.905029993,ScPd
mp-7565,-0.143892769,SbRu
mp-981699,-0.44622634,SmZnIn
mp-6667,-3.107315883,CaBPO5
mp-14100,-1.235567641,Cd(RhO2)2
mp-550805,-2.49286899,LuBi2ClO4
mp-795582,-1.490648299,Nb4ReO4
mp-23905,-1.755105032,KMgH9(CO5)2
mp-13082,-0.358231834,Mn2CoSi
mp-26150,-2.37542499,Sb(PO3)4
mp-559088,-3.109074057,La2Si(IO2)2
mp-3441,-1.127964022,Y(SiRh)2
mp-676121,-0.219939335,Ag3SI
mp-999249,-0.186492774,Sc2MnGe
mp-9918,-0.282723238,LiGe
mp-690703,-1.889850036,BaH4(ClO)2
mp-39681,-2.849570636,NaTi2BiO6
mp-17714,-3.398091156,Ho4(B2O5)3
mp-30110,-1.557749503,SrLaI4
mp-619928,-1.232578861,Zr(Se2Cl3)2
mp-978847,-0.515853891,SrGaGeH
mp-15514,-0.563857809,NaSe2
mp-558984,-2.082363719,GaTeO3F
mp-757301,-2.470292524,LiSn(PO3)3
mp-18332,-2.073528869,Lu2ZnS4
mp-543001,-0.58912371,Zr5Sn4
mp-16600,-3.309791684,Dy2B4O9
mp-22538,-1.989451136,Li8PbO6
mp-581967,-3.055720697,Nb2O5
mp-769008,-1.755782435,Li4Bi3O8
mp-638261,-3.35357283,La2GeO5
mp-567178,-0.673564782,PbI2
mp-776500,-2.752654785,Li3V2(OF)4
mp-9061,-2.129726677,KPdF3
mp-905,-4.515876214,LaF3
mp-21858,-3.548973672,UO3
mp-773206,-2.591817282,Li3CrSiBO7
mp-771902,-2.555947534,Li4Ti3Cr2Fe3O16
mp-27202,-0.197906298,B9H8S
mp-707151,-1.789453585,Na2B4H20O17
mp-23077,-2.322379087,Cs2UCl6
mp-976953,0.042584421,Ni3Te
mp-861965,-0.658474675,Ho2RuRh
mp-570053,-0.893855775,Bi8AsAuCl9
mp-686183,-1.622512764,Zn(Bi25O38)2
mp-21328,-0.274463654,HfSn
mp-505081,-0.750833701,Ti2NiP5
mp-13568,-2.186034054,NdS2
mp-1501,-0.912979474,Al3Pt5
mp-696944,-1.66431175,LaHBr2
mp-1377,-0.205085827,ThCu2
mp-644246,-0.604482803,EuH3Pd
mp-763003,-2.97336949,LiMnF3
mp-23719,-0.118972106,BeAlH5
mp-23300,-0.942438196,NdBi
mp-776661,-2.440050531,NbV3O10
mp-1594,-0.275212525,Ni2Ge
mp-16281,-1.804650522,Cd2Sb2O7
mp-708,-1.576930161,LaAs
mp-30492,-0.203349224,Na2CdSn
mp-1008726,0.427516726,Ti2Ga
mp-772105,-3.242341406,Li2Zr2O5
mp-554688,-2.242946956,Ba6Hf5S16
mp-561099,-2.111564071,Ba4Os6ClO18
mp-556578,-1.036552819,Cd(IO3)2
mp-541168,-2.941538736,RbTm(PO3)4
mp-866071,-0.187579487,MgTaOs2
mp-567913,-0.492089843,CsAuSe3
mp-753519,-1.89587762,CuPO4
mp-34932,-0.914464472,CaHN
mp-8683,-0.445821762,K5As2Au
mp-756439,-2.031024224,SrLaBr5
mp-763344,-2.291946268,LiV3O8
mp-13026,-0.928077935,YbZnPt
mp-976885,-0.02868785,Li2Mg
mp-555132,-1.569006481,BiXeF9
mp-635426,-0.826105105,GdAu
mp-773498,-1.88570507,Na6Sn2O7
mp-778754,-2.428573969,Li8MnFe7(BO3)8
mp-7651,-3.81365057,ThSiO4
mp-631492,0.915416228,BaScIr
mp-861483,-0.658302383,Pr2IrPd
mp-557407,-2.474131116,K3NaUC3O11
mp-31075,-0.363130834,Hg3(SeBr)2
mp-697981,-1.536251486,Cd3H2CSeO8
mp-5859,-3.131721814,AlPO4
mp-541819,-0.430865438,Rb2Hg(BSe)9
mp-562338,-2.346847412,USeO6
mp-20329,-1.413484127,InAgO2
mp-21563,-3.247574578,SrAlBO4
mp-771699,-1.691543678,Sb2O5
mp-755074,-4.095995963,CeOF
mp-1019378,-1.343598902,Al3GaN4
mp-758038,-3.709009678,La2Ti3O9
mp-775275,-2.280384623,Mn3Sb(PO4)6
mp-774236,-2.510173052,Li3CrSiCO7
mp-35739,-1.723368521,ZrUN2
mp-766267,-4.004519465,Y7TmO12
mp-32586,-2.449830088,Nd2S3
mp-558126,-2.06955825,LaH4S2NO8
mp-28645,-0.802493761,CaNiN
mp-30091,-0.424980281,MgB9N
mp-639900,-0.487931773,K(GeSe2)2
mp-17141,-0.588817618,Er3(AlNi3)2
mp-27563,-1.908918027,Rb2In4O7
mp-765416,-2.959075817,Li2Fe2Si8O19
mp-11470,-0.058597497,Hg2Pt
mp-34787,-0.548983982,Ag7NO11
mp-17250,-1.838788607,K3SbO3
mp-558713,-3.210087783,LiAlSiO4
mp-973441,-2.523786641,La(ErS2)3
mp-28755,-1.093290363,GdCBr
mp-10510,-3.561507593,BaAlBO3F2
mp-9361,-2.219202241,RbLaS2
mp-11038,-0.306949892,Zr6Al2Fe
mp-2062,-0.668216952,LaSi2
mp-651005,-0.777661183,In3Bi7(Pb2S9)2
mp-7914,-3.208728532,NaScO2
mp-754668,-3.094090588,Hf3N2O3
mp-34139,-2.192271665,Mn2CrO4
mp-10994,-0.791249366,TmCuAs2
mp-626093,-1.223172186,H7NO6
mp-669496,-0.132535894,PtI4
mp-865147,-0.25261484,Be2CuRu
mp-640553,-3.198405496,BaNb2O6
mp-765481,-2.259445455,Li2AgF5
mp-7614,-0.46827251,Si(Ag4S3)2
mp-776332,-0.313405415,Na(BH)5
mp-505148,-0.994451454,ThPbI6
mp-707014,-0.741894468,P2H10S4N2O
mp-557970,-1.863810158,SrCu(TeO3)2
mp-978840,-1.234854381,SrLi2(SiN2)2
mp-28688,-2.057386049,SrHgO2
mp-644923,-3.273542012,SiO2
mp-973834,-0.078743695,PdAu3
mp-22862,-2.092021334,NaCl
mp-21043,-2.758296532,RbPbF3
mp-28997,-0.653244055,Y2AlGe3
mp-17240,-2.638446951,RbNa3Li12(SiO4)4
mp-555253,-3.118711601,La5Ti2AgS5O7
mp-18026,-0.172139739,SrZn11
mp-1008762,-0.697192508,TaN2
mp-5693,-1.267360396,NaCrS2
mp-5852,-0.685515189,Pr(SiOs)2
mp-972649,-0.257168469,SmHoRu2
mp-866075,-0.538260845,MgTaIr2
mp-12755,-0.96321098,ThRh
mp-757878,-1.487658152,Na5Cu(HO2)2
mp-556538,-1.381055545,Na8(CuO2)5
mp-770860,-2.480841665,Li4Mn2Fe3P6WO24
mp-568512,-0.072418195,Ba6Mg23
mp-978278,-0.396366829,Na(BH)6
mp-12762,-0.483352892,PrB6
mp-166,0.016923985,Ca
mp-15931,-1.779720683,NdCrS3
mp-35986,-4.33770598,Ba4Nd3F17
mp-977357,-0.376438339,Ta2ReRu
mp-541682,-0.514449775,K3AlAs2
mp-569918,-0.651153199,K13Na2W7N19
mp-684583,-0.931645035,CsO2
mp-30764,-0.432361517,LiPt2
mp-745012,-2.136505894,Ni2P2O7
mp-768061,-2.18866424,NaMnPCO7
mp-999558,-0.273295926,Mn2SiNi
mp-775843,-2.349844206,Zr2N2O
mp-24148,-2.903049611,LiLa2HO3
mp-1018027,-1.354520901,VN
mp-961666,0.392545252,MnNbAs
mp-558310,-2.999027794,BaLi2SiO4
mp-5900,-4.182598614,Ba2ZrF8
mp-560789,-2.025060311,SbI(ClF3)2
mp-768347,-1.458578012,Li8NbS6
mp-1007961,0.193624709,CrInCu2
mp-1222,-0.36340149,CrSi2
mp-16621,-0.507618347,HoAl7Au3
mp-29927,-2.443226672,Pb7(BrF6)2
mp-626037,-2.621777341,Si2H2O5
mp-935811,-2.862183985,KNbO3
mp-8412,-3.098131741,LiCeO2
mp-974938,0.173648072,Rb3Li
mp-722862,-1.278904836,CdH3NO5
mp-978997,-0.293111139,Sm(NiBi)2
mp-572543,-2.936802159,CsPr(PO3)4
mp-690552,-2.871330621,SrLaMnMoO6
mp-4989,-0.223159696,CrNiAs
mp-768518,-3.743840398,LaAlO3
mp-982393,-0.288409419,Pm2ZnAg
mp-6820,-1.595236572,Cu2Hg2SF6
mp-759849,-3.03739144,Li2Ti6Zn3O16
mp-2776,-0.23443744,Ga2Au
mp-559469,-1.762110458,CaH6C2O7
mp-1006245,0.708522935,ErNp3
mp-26542,-2.395740408,Sb(PO3)4
mp-510438,-0.459062218,InPt
mp-776360,-2.350575353,Zr2N2O
mp-704488,-2.60530351,Th(MoO4)2
mp-2733,-0.329612825,Al8Mo3
mp-647426,-1.590758556,Cs2NpBr6
mp-765566,-1.799280352,LiAg2F6
mp-3344,-0.853429322,CeAlRh
mp-758662,-2.850498582,Ba2GaP4HO14
mp-771321,-1.869458968,Cs4GeO4
mp-975346,-1.39118886,RbMnO3
mp-777447,-2.767385678,LiFe2F7
mp-625578,-1.149508071,H5BrO2
mp-16807,-0.565838985,Dy3(AlNi3)2
mp-722,-1.860489533,Pr3Se4
mp-556615,-2.419762248,CaBi6(PO5)4
mp-767538,-2.753117697,NaCePCO7
mp-28431,-2.072257334,Sb(IF3)2
mp-31176,-0.667069086,HoNiSn
mp-4044,-1.202714231,ErAgSe2
mp-7940,-0.983771426,KNbSe2
mp-11684,-3.248762653,SiO2
mp-2502,-0.309629802,TmCd
mp-11696,-0.087367885,As3W2
mp-849772,-2.515659648,LiTi3Nb(CuO4)3
mp-730585,-2.633565226,LiBH2OF4
mp-866834,-1.649068774,Ca2SnS4
mp-752529,-1.36892197,Li5CrS4
mp-1018662,-0.978593073,CeSbPd
mp-862912,-0.590052552,PmHgAu2
mp-561947,-2.268757247,CsHgF3
mp-23549,-2.453401792,Bi3B5O12
mp-714929,-1.868423704,CrO2
mp-8883,-0.342398712,GaAs
mp-28896,-0.178670197,CuBIr
mp-25871,-2.401912581,Li3Cu2P5O16
mp-961703,0.224422192,NaLiPt
mp-29760,-3.340218806,Ca10P6O25
mp-5020,-3.510898695,BaTiO3
mp-17375,-1.47139906,K2Na3TlO4
mp-22432,-0.97759801,Ti4Cu2O
mp-778861,-3.04657491,LiV2OF5
mp-34381,-0.614804386,H4IN
mp-265,-0.684115102,TaIr3
mp-12055,-0.373777489,LaCd2
mp-763204,-2.358665893,MnOF
mp-472,-0.154555235,UAl2
mp-3952,-3.675265386,BaY2O4
mp-28662,-0.26019686,Tl2SnTe3
mp-684027,-0.101563808,Mg3(MnAl9)2
mp-771669,-2.054067268,Li5Mn5O12
mp-768971,-1.593626071,Li(BiO2)3
mp-5029,-2.625061858,Ho2Cu2O5
mp-3440,-0.641625779,Li2(LuGe)3
mp-699453,-1.635128118,RbAs2H5O8
mp-774417,-2.504883514,Sn3P6WO24
mp-975055,0.508301673,Rb3Ac
mp-754353,-1.642277833,Zr3N4
mp-33683,-0.168205305,AgSbSe2
mp-753720,-1.254650063,Li3BiS3
mp-774247,-2.24656966,Na3FeBSO7
mp-851357,-0.220405001,Fe2S
mp-778859,-2.490200844,Li3Mn2Fe(BO3)3
mp-27148,-0.325888916,BeP2
mp-972529,-0.309820972,SmP3
mp-555580,-3.28217501,SrZr4(PO4)6
mp-2596,-1.296824111,NpN
mp-6989,-2.334567671,BaSeO3
mp-773469,-1.875324896,Li4Mn5Te3O16
mp-849513,-2.38649566,Fe2Sb(PO4)3
mp-570757,-0.455319574,Nb2Tl3CuSe12
mp-763331,-3.002086833,LiMn2F5
mp-16740,-0.685129443,TiGePd
mp-24142,-2.718126129,MgAlH4O2F5
mp-26767,-2.589063059,LiNb(PO3)4
mp-699352,-2.29324963,LiFe2(PO4)3
mp-6019,-3.486474373,Sr2YNbO6
mp-971707,-3.181323875,Tm2Mg2O5
mp-765311,-2.433348906,LiVCrP2(HO5)2
mp-29682,-0.589473635,BaAg8S5
mp-949028,0.027153815,Sn
mp-704184,-2.478409737,LiMn(PO3)4
mp-7874,-0.26835206,LiGaGe
mp-772875,-1.757313494,Ba2SrI6
mp-696125,-2.634305057,Li10Si(PO6)2
mp-754815,-1.920899526,YBr3
mp-556775,-1.13932253,ZnS
mp-1654,-0.37715363,CeNi2
mp-1018737,-0.646829597,KMgP
mp-764333,-2.96867883,V3(OF3)2