id,formation_energy_per_atom,pretty_formula
mp-32509,-2.55791717,V(PO3)4
mp-567646,-2.789424217,Ba9Sm6Cl34
mp-569125,-0.079296941,Mg3In
mp-973534,0.086774576,FeRe
mp-772638,-3.319047388,Ho2WO6
mp-9317,-1.597181093,KZrCuS3
mp-562442,-1.824123782,Cs2SeO4
mp-571333,-1.325080261,Ca5(SiN3)2
mp-7461,-1.459574464,Hg2SO4
mp-17059,-2.998263206,K3Nb3Si2O13
mp-21801,-1.404683904,Rb4PbO3
mp-770935,-2.123873635,Na3CuPCO7
mp-9124,-0.523349433,LiZnAs
mp-5939,-0.393132381,PrB2Ru3
mp-29677,-0.412783859,Ho3AlC
mp-764424,-2.696329617,Li3V2(O2F)2
mp-761817,-2.682917289,LiNbVO4
mp-754468,-1.332317341,NaCuO2
mp-643912,-0.650389841,Ca5Ge3H
mp-530262,-0.775168787,Li15Cr2N9
mp-30185,0.040031902,BaSi23
mp-758324,-3.322707914,Ti5Nb2O14
mp-867938,-1.549497795,SnH6(NF2)2
mp-760698,-3.070175639,Yb2TiO5
mp-31119,-3.977259094,TbScO3
mp-18555,-2.687945999,KEr(SO4)2
mp-19322,-2.599398057,BaMoO3
mp-974997,0.223032653,Rb3Ge
mp-976590,-0.567019231,HoTlRh2
mp-667320,-0.806754321,SeCl4
mp-9752,-3.25043312,Li2NbF6
mp-776054,-1.795752912,Li2MnCuO4
mp-759141,-2.523928789,LiBi(PO3)4
mp-757798,-1.767151894,Bi12PO20
mp-850979,-2.712741104,V3(O2F)2
mp-645694,-1.838466303,Ce3LuSe6
mp-720804,-2.275384288,K3Na3TeP6(HO4)6
mp-19516,-2.503119322,Al2(WO4)3
mp-766387,-3.394782368,RbAl11O17
mp-4288,-0.712587994,TbNiGe2
mp-570268,-0.352990705,MnSbSe2I
mp-989575,-0.194708052,Cs2AlTlH6
mp-26944,-2.384093573,Sn2P3O10
mp-8382,-3.411248993,CePO4
mp-1008928,-1.738286209,EuSe
mp-20959,-0.640059703,Ce2InGe2
mp-772554,-2.641013558,Li4Nb3V5O16
mp-753785,-3.2822779,NbOF3
mp-978294,-0.129997711,Mg3Sn
mp-769138,-2.846201286,Dy2Sb2O7
mp-561251,-1.562544849,Rb2Y(NO3)5
mp-567874,-1.346931656,Pr(AlBr4)3
mp-755558,-3.603526993,BaLa2O4
mp-9753,-3.21311714,Na2NbF6
mp-17815,-0.282494614,Ba4Si20Au3
mp-643801,-1.527850325,K2H6PbO6
mp-570499,-1.526943789,La5(BN3)2
mp-768582,-2.431163014,Na3BiBPO7
mp-31600,-2.451724409,LiCo(PO3)4
mp-568614,-1.68163022,Cs3W2Cl9
mp-555118,-2.657075995,NaPO3
mp-5157,-0.932035828,Ca(PRu)2
mp-865269,-0.998480892,TmCuPbSe3
mp-20054,-0.878981675,TbGe2Pt
mp-26311,-2.536881465,Li5Cu(PO4)2
mp-976868,-1.113168358,NiH2SeO5
mp-28021,-2.296580801,Sr5(Br4Cl)2
mp-770710,-1.896640378,Li3Mn7O16
mp-989538,-2.70364702,Cs2InBiF6
mp-559755,-2.337059931,Sm2(SeO3)3
mp-974355,-0.93247306,Mn2S3
mp-510030,-1.576149818,Pb3(ClO)2
mp-754359,-3.566163861,Y6TeO12
mp-570022,-0.355132586,Ho5Co2Bi
mp-5796,-0.629271401,Ho(MnSi)2
mp-28351,-3.392412255,Dy2GeO5
mp-979045,-0.61415991,Tm2CuPd
mp-569015,-0.361312563,MgCuAs
mp-979253,0.016990601,Sm3Tm
mp-28329,-0.343022534,TlI3
mp-9483,-0.251161801,Zr9V4S
mp-697914,-2.2892549,ZrP2(H3O5)2
mp-546973,-2.611337164,SrSnO3
mp-989196,-1.565879592,SbClO
mp-13061,-3.919188583,Y2O3
mp-975053,0.175741757,Rb3Ba
mp-29022,-0.75428745,K2GeSe4
mp-570217,-0.716775616,Tm(SiOs)2
mp-1020022,-2.76378203,Li3B(PO4)2
mp-13032,-1.744303157,MgS
mp-972187,-1.162869608,ZrSiPt
mp-18040,-3.994384399,KPrF4
mp-752826,-3.367317154,Al2O3
mp-643712,-0.261492553,Rb3MgH5
mp-755198,-2.155550815,Cs3LaO3
mp-7241,-0.879038399,Ho2InPd2
mp-972209,-0.284304505,Ta2TcW
mp-680472,-0.764880324,NaMo6Br13
mp-19954,-0.057330644,Al8Cr5
mp-771788,-2.427844075,Li4V3O8
mp-756468,-3.724439808,CaY2O4
mp-977421,-0.806489395,TbGaRh2
mp-773817,-0.603073325,Sn2N2O
mp-560420,-2.525761748,K3Bi2(PO4)3
mp-865572,-0.582622486,CeAu3
mp-771831,-2.801349346,Sr2LaCl7
mp-755651,-2.929511462,CsGdO2
mp-759707,-1.973332909,Sb4O5F2
mp-21596,-0.566871877,Ba3Ge4
mp-19354,-2.25471085,PrMn7O12
mp-16160,-2.824994422,Sm4Au2O9
mp-2001,-0.343621567,LaTl3
mp-755568,-1.932182986,GaBiO3
mp-975801,-0.25568355,PrTlAg2
mp-740710,-2.092251828,Na2LiP3H8O13
mp-11272,-0.126645934,Be2Nb3
mp-864642,-0.813086275,HoSnRh2
mp-561051,-0.90719408,Rb2Sb4S7
mp-1013864,-1.857227452,Na3Fe2(GeO4)3
mp-642754,-2.956902937,Gd2Mo2O7
mp-8459,-1.964277305,CdSO4
mp-8858,-2.345640412,RbCuF3
mp-28846,-0.330533769,TaCoTe2
mp-542078,-0.905477458,K2LaP2Se7
mp-600003,-3.280404961,SiO2
mp-850964,-2.107879479,Li3CrO4
mp-5244,-0.907329668,Ti2SbP
mp-752460,-1.991274315,LiAgF4
mp-626230,-1.495056657,Ca(H8O5)2
mp-29169,-1.707652711,Cd(AuF4)2
mp-714883,-1.924337679,MoO2
mp-705516,-0.81739062,Li10Sn(PSe6)2
mp-644879,-3.205639421,MgSiO3
mp-644852,-2.671552922,BaCa(CO3)2
mp-10675,-1.020351478,Ti3AlN
mp-2173,-2.456349338,P2O5
mp-974751,0.214906858,Rb3Zn
mp-3180,-2.52054478,Ta2Te2O9
mp-866126,-0.295726937,DyNbRu2
mp-672372,-0.999708269,K2S5
mp-28419,-0.713981698,K2TeSe3
mp-758741,-0.609667843,Li(FeP)2
mp-9350,-0.722842857,ScGeAu
mp-28969,-2.431435019,Pr2NCl3
mp-504874,-0.554674422,YB7Mo3
mp-762023,-2.22643378,LiNiPO4
mp-9208,-0.799935164,V2B3
mp-676572,-2.990505488,NdPb6F15
mp-16118,-1.494683476,RbDy2CuSe4
mp-554625,-0.902571803,SbS2NCl8
mp-540296,-2.59030957,Li2Mo(PO4)2
mp-754217,-2.946298177,SmIO
mp-26299,-2.472372295,LiSnPO4
mp-10405,-0.317627174,Yb(AlSi)2
mp-40373,-2.173339979,In14Ga3Pt2O8F15
mp-36028,-1.688723656,Co2SnO4
mp-989190,-2.959326928,ScBrO
mp-15785,-2.217279949,KDyS2
mp-1019138,-1.154299424,SmSbTe
mp-722977,-1.618714223,Na2Si(H3O2)6
mp-626566,-2.917855704,Ti3H2O7
mp-772561,-2.264684296,Li2CuSb(PO4)2
mp-17678,-2.38912395,Sr(ScS2)2
mp-531297,-0.856194654,Ga4GeS4
mp-10789,-0.501417547,Yb2Ge6Pd
mp-1031,-0.353912848,GdCd
mp-9025,-0.826434182,YSiAu
mp-764883,-1.638639138,Fe4O7F
mp-11869,-0.721481888,HfSnPd
mp-770415,-3.973694882,HoErO3
mp-759169,-2.237299771,Li2CuF6
mp-8500,-1.859961753,AsS2NF6
mp-18951,-2.53984385,LiFePO4
mp-21381,-0.234714145,ThPb3
mp-555851,-2.448605088,Na2Cd3(P2O7)2
mp-555434,-1.583950595,As2O5
mp-555836,-2.153902053,Sn2PClO4
mp-668,-0.692459835,PrGa2
mp-762391,-1.16151996,Li2(NiO2)3
mp-23879,-2.239104252,Ca(HO)2
mp-1343,-0.311484231,NdNi2
mp-31018,-0.606814017,SrAgBi
mp-864797,-1.203939464,NdCrSe3
mp-2520,-1.06221313,TmSb
mp-631194,-1.076303776,La3Ga4Cl
mp-704645,-0.949798702,CuO
mp-687081,-2.238657149,YbCoO3
mp-6026,-2.269081772,Na2Mg(CO3)2
mp-32679,-0.472051459,Nb10C7
mp-15558,-3.13368359,Li3GaF6
mp-16590,-3.315988216,Tb4Si2S3O7
mp-11365,0.020128092,Ti3Cu
mp-24799,-0.585337144,Cs3B12H12Cl
mp-558378,-0.382229125,Pd3S
mp-773900,-1.621668237,BaCa2I6
mp-985831,-1.349336169,HfSe2
mp-770673,-2.565375668,V5Sb(PO4)6
mp-17597,-2.361184733,Ca(ScS2)2
mp-763184,-2.134610752,Li3Cr3CoO8
mp-962061,0.2233542,YMgTl
mp-770849,-2.43792215,VCrO3
mp-530738,-2.182365299,Li10Mg7Cl24
mp-10706,-0.330864042,ZrRu3C
mp-861734,-0.53227388,AcZnAu2
mp-27971,-2.924151707,AcCl3
mp-982778,0.143062138,Zn3Se
mp-810,-0.26794148,NiSb
mp-20932,-0.836597765,NbNiP
mp-29212,-0.663871268,Tl4PbI6
mp-568916,-1.16426958,K6InTe4Cl
mp-754496,-0.975083557,Li5SbS
mp-24150,-2.833885417,LiNd2HO3
mp-13125,-0.568657454,PrCoGe3
mp-17228,-1.016278966,K2Ni3S4
mp-753216,-1.850502212,LiAg2F4
mp-20197,-0.137440125,Cr2GaC
mp-38257,-2.153042775,Na3(WO3)4
mp-979948,-0.556750994,SmNiB4
mp-16859,-0.461138411,Ba6Ga5N
mp-764842,-2.945738302,LiVOF3
mp-989542,-0.74756087,Ba6Tl2NCl
mp-14455,-1.285137228,Cu4Ag(AsO4)3
mp-776952,-1.359801581,Na2O
mp-5858,-2.026681555,CdPtF6
mp-705801,-3.390032869,Sm3MoO7
mp-735578,-1.976181024,SrMoAsH3O8
mp-6146,-2.592416809,LiNbZnO4
mp-768235,-2.266539249,B2TeO5
mp-1664,-0.135234846,V3Pd
mp-722834,-2.352187602,Na6P2H2O9
mp-762572,-2.229790812,Mn6O7F5
mp-6553,-3.360887202,LiSc(SiO3)2
mp-35876,-2.457783264,Ca(NdS2)2
mp-505198,-0.358772255,CsCu4Se3
mp-493,-0.241196312,Co2B
mp-772437,-2.469818284,V3Bi2(PO4)6
mp-568184,-0.501839762,Lu(BRu)4
mp-774797,-3.07369836,Li2Ti3ZnO8
mp-760795,-3.319184622,Al10ZnO16
mp-560342,-0.913756395,Ag4GeO4
mp-759493,-2.441490781,LiSbP2O7
mp-973225,-2.599613227,Na2CrH2F8
mp-19329,-2.611032874,Na2V(PO4)2
mp-645514,-0.253539725,Bi12Rh3Br2
mp-28382,-1.508113547,K4ZnO3
mp-567919,-0.151846693,Al45V7
mp-20194,-3.949621896,CeO2
mp-1005693,-0.475164885,Sm2InHg
mp-770104,-1.87305572,LiMn4O8
mp-12829,-3.482715555,LiCaGaF6
mp-616544,-1.191435171,RbCr3S5
mp-35269,-1.367589664,Ca4Sb2S
mp-973554,0.560686781,K3Sm
mp-686614,-2.522381871,TaTi9Al3Zn23O48
mp-865798,-0.098446226,GaCu3
mp-561248,-1.363223619,SmCuTeS
mp-36711,-1.825981209,Na(Sm2Se3)4
mp-979989,-0.643913967,Yb2AgPd
mp-570136,-0.156195022,CuI
mp-14289,-0.948231573,Ba3P4
mp-18861,-2.975167111,BaNd2Mn2O7
mp-754782,-1.274606592,Na2CdO3
mp-505363,-0.475421142,P3Pd7
mp-3972,-3.473079334,Ce2SO2
mp-17153,-1.54904661,Ba(TbTe2)2
mp-768942,-2.291516883,Ho2(SeO3)3
mp-1019781,-2.660483804,K2Na3P3O10
mp-15318,-3.608501568,Rb2NaHoF6
mp-15833,-0.751941633,Zn4P6SN12
mp-862316,-0.69156059,LiBePt2
mp-557224,-1.064483807,HgSeO3
mp-30239,-1.762047706,Sr3(BS3)2
mp-637213,-1.297395244,La2GeI2
mp-770949,-2.487615968,Li2VPCO7
mp-562263,-1.501657442,Cs2PbO2
mp-777899,-2.848222738,LiFeF3
mp-998412,-1.048399029,KGeBr3
mp-753879,-2.954953074,Pr2S2O
mp-5843,-2.980454923,Ce(PO3)3
mp-10162,-0.637293507,La3Si2
mp-1007760,0.01962656,Ge
mp-865809,-0.352580364,TiTc2Sb
mp-720853,-1.961133723,Na2PH5O6
mp-555808,-2.014400427,Zn8B3H3O14
mp-568052,-0.156571443,K2Ga3
mp-753864,-3.109555807,Sr2Li2Nb4O13
mp-24081,-1.606484262,ScHCl
mp-773600,-2.264898759,LiVSnO4
mp-777454,-2.316856797,V5FeO12
mp-771026,-2.22956776,Na2BSbSO7
mp-14069,-2.866350923,CsAlO2
mp-7331,-0.465635455,Cs2MgFe(CN)6
mp-16280,-2.616091447,Ca2Sb2O7
mp-20458,-2.108819133,PtPbF6
mp-33975,-0.006630217,CuAsSe2
mp-753371,-0.915745991,LiCuS
mp-14951,-2.191785441,Rb3AlO3
mp-568666,-0.67638656,RbAuI3
mp-862954,-0.816418912,PmPd3
mp-567479,-0.59160293,Ho4InIr
mp-680219,-2.153707163,UPb(SeO4)2
mp-17167,-2.567218298,Be3Cd4Si3TeO12
mp-735521,-1.828661332,MnH6(OF)3
mp-558155,-2.941854764,KFeF4
mp-13563,-2.842457292,YP5O14
mp-770353,-2.144550473,LiCr2(SO4)3
mp-558448,-2.418537891,Pr2Ir2O7
mp-770505,-2.388108078,Li4Ti3Cr2Co3O16
mp-998435,-1.61501065,CsScBr3
mp-571132,-0.263420383,LiMg10AlH24
mp-6602,-2.297045506,SrCu2(BO3)2
mp-3444,-3.766971037,ErTaO4
mp-26541,-2.508340802,LiSb(PO3)4
mp-768142,-2.876673709,Li13Nb14ZnO42
mp-775001,-2.254374488,V3FeO8
mp-21652,-2.444557424,Sr8CaCu4(ReO8)3
mp-705154,-2.59915745,LiCr4P7O24
mp-9957,-0.48696887,V2GeC
mp-775910,-3.781478349,ZrO2
mp-3236,-3.467530214,Pr2SO2
mp-557809,-1.009772302,SbSCl9
mp-779877,-2.42919755,Li6MnFe5(BO3)6
mp-30051,-1.344427529,Si3CCl7
mp-778314,-3.142697996,LiVF4
mp-707071,-0.929957181,ZnH10C4N6(ClO2)2
mp-510708,-2.824153217,LiFe(SiO3)2
mp-867924,-0.448638469,LiCdPd2
mp-777978,-4.265651257,BaYF5
mp-540771,-2.206850079,BaZrS3
mp-556497,-2.218337701,RbNi2F6
mp-622511,-0.26602681,In2Te3
mp-571510,-0.22213815,Pr5B2C5
mp-22231,-0.51290347,UTe3
mp-3107,-2.448794234,Ga3PO7
mp-18993,-3.23056665,LuVO4
mp-770629,-2.563785224,Li2AlFeO4
mp-677191,-2.486337678,BaLaZnRuO6
mp-26377,-2.600824935,Li5Bi2P5O18
mp-770526,-2.347678994,Li6Fe2B4SO16
mp-569594,0.025205909,Fe7Mo6
mp-18343,-3.136364738,BaMgP2O7
mp-557540,-0.964055244,Rb2AgSbS4
mp-2038,-2.395434541,Sm3S4
mp-558144,-1.280741253,CuH10(CO4)2
mp-756580,-3.822111835,SrLu2O4
mp-34433,-2.515121184,Mg2TcO4
mp-560835,-2.02290653,Pr10Se14O
mp-631580,0.993194791,BPd2Br
mp-8450,-2.130156604,Rb2Li2GeO4
mp-31451,-0.417169958,ZrCoBi
mp-775328,-1.675678947,Li2TiNi3O8
mp-16641,-0.717801861,YbSn2Pd
mp-9655,-1.875098545,Na4SnO4
mp-27809,-0.505127319,Ba(GeP)2
mp-649595,-3.325849915,CaMgSiO4
mp-6342,-2.649909223,LiCa3RuO6
mp-5169,-1.744288351,Cu4P2O9
mp-557713,-3.528073962,Ba2LaTaO6
mp-769646,-2.28649094,Li2TiCo2O5
mp-972448,-1.636550314,SmBS3
mp-10000,-1.253249441,Hf2S
mp-20351,-0.209349118,InP
mp-849525,-2.47899441,Li2Fe3O3F5
mp-653855,-1.246226623,Pr3PtI3
mp-571055,0.006248957,Fe11Mo6C5
mp-20744,-0.405553671,ZrInNi2
mp-22394,-0.293414556,ThRu3C
mp-767960,-2.297019351,Na2FePCO7
mp-17801,-0.439541111,Hf2CuGe4
mp-561622,-0.969840478,Cs2AgAsS4
mp-555556,-3.280051358,SiO2
mp-698594,-2.59684086,Sm2Mo2O7
mp-607525,-0.655217961,Ba11(Cd4Bi7)2
mp-18063,-0.396683666,SrSn3
mp-32393,-2.11209791,Ni2P5O16
mp-771707,-2.527339093,Li2SnBPO7
mp-642659,-0.188571454,V2H
mp-770348,-2.51058408,Li2VSiCO7
mp-17283,-1.12085404,K3NbSe4
mp-979417,-0.336140027,DyYCd2
mp-690567,-2.544832492,BaLaMnRuO6
mp-769346,-3.035988826,Y2Ge2O7
mp-556375,-3.044922971,Ba2LaSbO6
mp-82,0.000191095,Tl
mp-989620,-1.389334661,LaTaN3
mp-1008349,-0.002648168,Co3Ni
mp-555065,-2.949750587,LiEr(PO3)4
mp-10126,-0.694520707,V5SiB2
mp-766358,-1.705872237,Bi5O7F
mp-570130,-0.107951341,AlH3
mp-555199,-0.550043985,TlHgAsS3
mp-760440,-3.646107186,Sr2U4O11
mp-780010,-2.872958468,Ba2GeO4
mp-619034,-2.656506957,ZnSiO3
mp-976357,-0.364089579,Lu3Sn
mp-1105,-2.173043786,BaO2
mp-31030,-4.243052818,KHo2F7
mp-865424,-3.229048035,CsUO3
mp-559309,-1.795578227,K3ZnNCl4O3
mp-981541,-1.002275245,TmLuRh2
mp-679927,-1.520582851,Rb2Sc(NO3)5
mp-24096,-0.724059418,NdH2
mp-558159,-3.551548316,BaTi2O5
mp-976264,0.195639066,Li3Nd
mp-706303,-2.343599668,KCa2P4H9O17
mp-31121,-3.989487776,HoScO3
mp-542854,-0.11505727,Mg9Si5
mp-540312,-2.660152269,Li2V(PO4)2
mp-22528,-0.576840668,ThCrB4
mp-1018651,-0.937956861,Ba2H3I
mp-34326,-1.10935091,Li6Br3N
mp-867724,-2.227895189,Mg2PbO4
mp-758675,-1.063274675,TeH14C2(NO2)4
mp-761140,-3.129272355,Na4Ti7O16
mp-985825,-0.086386316,Al3Cu
mp-1014005,-0.117091511,Mn2SiRh
mp-768388,-3.43102706,Lu2GeO5
mp-780117,-2.097558054,Li4CoO3F
mp-997022,-1.18139644,AgAsO2
mp-542219,-3.694174074,Li2ZrF6
mp-31604,-2.524099985,Li2CoP2O7
mp-775484,-3.485411618,Ba6Li2Ti16O39
mp-12922,-1.139617202,NdPIr
mp-15843,-0.456672794,Ge9Pd25
mp-13963,-0.72006752,HfSiTe
mp-8755,-0.997495099,KNaTe
mp-557628,-1.825041441,AsS(IF3)2
mp-760817,-2.352679751,Li2AgF4
mp-20257,-0.339927502,AsPd3Pb2
mp-881,-0.132762868,NpSn3
mp-22065,-0.62328083,UGePt
mp-434,-0.739626872,SrAu2
mp-632694,-2.391695838,ScMo3O8
mp-16591,-3.301081522,Tm4Si2S3O7
mp-30311,-0.865422871,Zn3(PS4)2
mp-22238,-1.067636837,TbSnPt
mp-557456,-2.616296983,Li4Al3Ge3IO12
mp-36884,-2.085432653,Mn2SnO4
mp-18999,-1.966332658,NaMn7O12
mp-12569,-0.54567005,PrB4
mp-733610,-1.097950103,H7C3N3O5
mp-6972,-2.734077269,YCuO2
mp-770978,-2.254752911,Na2SiSbCO7
mp-685107,-0.029969005,Cu9Se5
mp-705845,-1.801288593,BaFeO3
mp-849507,-2.232901653,LiCoOF2
mp-772448,-1.493139301,Mn3Co3(TeO8)2
mp-505607,-0.363537224,In2Ag2GeSe6
mp-778772,-2.078446757,Li3Cu3(PO4)2
mp-559777,-2.943499104,Na5Ca2Al(PO4)4
mp-961677,-0.051367823,TaGaPt
mp-625841,-1.470586111,Sr(H8O5)2
mp-753353,-2.54487928,Sr4LiCu(CO5)2
mp-3726,-0.664062762,Li2GaPt
mp-973853,0.11327676,Pa3Tc
mp-9138,-2.686436914,RbPO3
mp-23268,-1.264691612,NaI
mp-10860,-0.48185396,CeNi2B2C
mp-697339,-2.497679592,Ho2H4CO7
mp-22532,-0.645890932,TbTiSi
mp-705293,-2.718732937,Li3V2(PO4)3
mp-685945,-3.693387765,Er14Ti10O41
mp-19258,-3.037050315,Ba2SmMoO6
mp-769252,-3.424006821,Sr3Ta2O8
mp-8277,-0.595594221,Sr(CdP)2
mp-19949,-2.340446621,Sc2Cu2Ge4O13
mp-755588,-2.993520769,Ho2TeO6
mp-17577,-1.009372844,Ca6MnN5
mp-550751,-3.344163336,BaBeSiO4
mp-1019599,-3.396179778,CePO4
mp-756182,-1.511077459,RbHO
mp-772176,-2.900015893,Li3Nb7O19
mp-775224,-2.682459759,NbV3(PO4)6
mp-558610,-2.542615548,Sc(ReO3)2
mp-8153,-2.127291512,NaHgPO4
mp-556135,-2.042896555,GdSI
mp-707333,-2.114575478,Na3SiH3O5
mp-981386,-0.391021455,ScH4Pd3
mp-770419,-3.78292181,Sr2Zr7O16
mp-14511,-2.659035979,NaAlGeO4
mp-9698,-0.368017091,Rb6AlSb3
mp-697451,-1.414106062,ZnP2(HO)4
mp-27431,-2.807408994,Sn3BF9
mp-19731,-0.558396253,CeMgPd
mp-763831,-2.274819583,Li8Mn(O2F)2
mp-935266,-1.003587741,LiC2NO6
mp-1009543,-0.928372075,DyBiPd
mp-744576,-1.551804774,CoH8SO8
mp-14935,-2.302350295,P3RhO9
mp-9847,-0.395006286,YbP5
mp-2836,-0.682817862,Dy5Si3
mp-24161,-0.583179625,TiH2
mp-973884,0.222178805,Ni3Hg
mp-560441,-2.871922951,BaZn2Si2O7
mp-6544,-0.51572235,LuNi2B2C
mp-770697,-2.479263473,CrPO4F
mp-2827,-0.098530095,YCo5
mp-4371,-2.036018745,Nd(CuO2)2
mp-758742,-0.744024469,KY(H2N)4
mp-542237,-2.804850714,SmP4HO12
mp-685281,-2.001758017,TiZnH12(OF)6
mp-31422,-0.607480411,TbAgSn
mp-19512,-2.835232513,BaV2(PO5)2
mp-1731,-0.015393371,LaCo5
mp-8581,-0.942397321,Sr(PRh)2
mp-978504,-2.933475516,SmGaO3
mp-973,-1.606999277,U2N3
mp-28070,-0.771283367,Rb2TeI6
mp-559203,-1.43553122,CdSeO3
mp-673134,-2.435923523,LiSn2P3O10
mp-643701,-1.971251326,TlP(HO2)2
mp-28543,-2.293842126,Cs4ZrO4
mp-1002107,-0.752612309,LaRh
mp-978039,-0.505859382,Ho4Ga16Co3
mp-865130,-0.523034805,Hf2MoRh
mp-30313,-2.614489466,Tb2Se2O7
mp-867205,-0.183251742,LiGa3
mp-308,-3.725097067,U3O8
mp-1008876,-0.273046675,MnCoS
mp-1541,-0.800727329,BeSe
mp-1233,-0.013877941,Cu6Sn5
mp-979917,-0.867679502,DyYRh2
mp-22722,-0.684565965,NbSiPd
mp-620471,-0.209953947,Cs3Te22
mp-560037,-2.92816802,Rb2NaBiF6
mp-1008753,0.575351139,Ti2Al
mp-642320,-2.042724906,Bi32P10Pb3O76
mp-19278,-2.783558701,BaCoP2O7
mp-761669,-2.973249802,Li2Ti3CoO8
mp-849420,-1.841927521,Li2Mn3CuO8
mp-10581,-0.441517573,Nd(AlGe)2
mp-764688,-1.812205179,Li4CoO4
mp-1018051,-1.667986261,KTiS2
mp-744193,-1.815794596,Ca2CrH2I2O11
mp-18705,-2.941399038,Sr3TbRhO6
mp-10076,-0.668750001,Hf3(NiGe)4
mp-770536,-2.667104194,Li2VH2OF5
mp-779902,-2.561787238,Li3V2P4(HO8)2
mp-3919,-2.665391346,KBO2
mp-685943,-1.108652323,Er7(CuTe4)3
mp-31046,-0.616788066,Ho3CrB7
mp-28914,-0.506685669,Cd4P2Br3
mp-1018817,-1.615557788,NdSe2
mp-761940,-1.713673028,Li2MnCo3O8
mp-769603,-2.524277096,LiVSO4F3
mp-768457,-1.914564362,Sb2(SO4)3
mp-1249,-3.846951914,MgF2
mp-28634,-2.127406751,KI3F16
mp-650503,-1.295140835,Rb3V2Br9
mp-643706,-0.155684891,Cs3MnH5
mp-774869,-1.875402214,Na5Bi2As(CO4)4
mp-1982,-0.759697238,Al21Pt8
mp-29074,-1.749836504,Te7As2F12
mp-20191,-0.615829376,Si3Ru2
mp-22253,-0.943610945,Zn(InS2)2
mp-1576,-0.495527817,TmNi2
mp-562542,-3.564061103,Cs4NaHf3H2F19
mp-23411,-1.033685045,K2TeBr6
mp-23290,-0.766061767,PtCl2
mp-22158,-0.301353341,TbCoC
mp-12732,-0.637852405,Dy3(CuSi)4
mp-7622,-1.915719772,KSO4
mp-867144,-0.419828969,CaMgHg2
mp-33997,-3.357275045,TaO2F
mp-764796,-2.348216233,Li3Fe8(BO3)8
mp-23413,-2.530713485,NbBiO4
mp-631322,1.108005517,KSnOs
mp-4274,-2.295700379,SrTeO4
mp-703574,-2.212460138,CaH2(SO4)2
mp-971948,-0.027411131,Zn3Co
mp-778743,-2.538477662,Li5Cu(PO4)2
mp-757428,-2.545940365,Cd2Si(P2O7)2
mp-556855,-2.723287186,Ba3Bi(ClO)3
mp-624200,-0.458363009,Re3Se4Br
mp-22736,-0.814602849,InCuS2
mp-30884,-0.364896175,YZn3
mp-29997,-1.470381665,La3AsI3
mp-558954,-3.625308757,Na2Sr2Al2PO4F9
mp-752827,-2.400474657,Ba2In2O5
mp-773432,-2.22049263,KMnPCO7
mp-23315,-0.63096975,IO3
mp-555664,-1.140069214,ZnS
mp-752926,-2.861024079,LiTiP2O7
mp-771062,-2.53120406,Li6MnFe3(PO4)6
mp-21344,-1.599041178,CuGeO3
mp-560550,-2.648661767,BaBi2(B2O5)2
mp-763215,-1.815147072,Ni3OF5
mp-743582,-2.802962618,TiMnCr(PO4)3
mp-775393,-2.33139711,Li2Cr3SbO8
mp-24517,-0.390438671,Rb2CaH4
mp-23787,-1.805329393,Na2ZnH8(SO6)2
mp-22952,-3.401835536,CeClO
mp-22790,-0.300975105,VGaCo2
mp-862719,-0.212071544,LiY2Os
mp-978557,-0.470703381,SmDyHg2
mp-555191,-3.477100313,La3Si2Cl3O7
mp-571079,-1.292863094,TlCl
mp-770412,-2.535362181,ScMn2O5
mp-554227,-2.511650049,CaU(SeO4)2
mp-757716,-3.163171566,LiTi(Si2O5)2
mp-560146,-2.989280392,Ba17Y16Zn8Pt4O57
mp-772048,-2.22525457,Na2BiBSO7
mp-8515,-3.026925127,BaSm2PdO5
mp-978289,0.40422069,Mg3Np
mp-703444,-1.919251541,B5H12NO12
mp-10382,-0.977022886,KEuPSe4
mp-998969,-0.214751023,TiH
mp-867340,-0.631420437,K2BaCdSb2
mp-29184,-0.401592606,Cr2P
mp-761831,-1.983264379,Li3Cr(CoO3)2
mp-6644,-2.883297309,LiLa2RuO6
mp-559256,-2.606496078,La4S3NCl3
mp-14646,-2.508240412,Li2Mg2(SO4)3
mp-10669,-0.47664153,Ba3(AlGe)2
mp-37888,-0.084896591,In2HgTe4
mp-7804,-0.579605564,HfCo3B2
mp-738,-0.069431063,Sb2Au
mp-23995,-2.462699089,Al2P3(HO3)3
mp-756180,-3.904361349,Ba2Hf7O16
mp-703295,-1.553013512,SrH2I2O
mp-23587,-2.504525695,HoSeClO3
mp-12782,-0.529198111,YbAl2Ni
mp-29330,-2.311514162,K2H5F7
mp-36329,-3.6898374,SrUO4
mp-684652,-3.351101526,BeF2
mp-33882,-1.163490282,ErAgSe2
mp-973629,-0.89377696,LuAlPd
mp-2768,-0.8270074,Ba2As
mp-560316,-1.272736802,Hg3SO6
mp-780183,-2.421780938,Fe2OF3
mp-662523,-2.364578753,SrTeO3
mp-763832,-2.433274033,Li3MnPCO7
mp-768154,-2.547594168,Na3MgPCO7
mp-767668,-2.327408434,Li9Fe5(SiO8)2
mp-12561,-0.476499463,TaAs2
mp-8703,-0.71759714,Na3SbSe4
mp-759367,-3.314925123,YbNdO2
mp-757924,-1.240293176,SbH5(Cl3O)2
mp-767588,-2.688055107,LiMnF5
mp-1018688,-0.276350633,ErTlZn
mp-757048,-3.114625874,LiTi(SiO3)2
mp-30018,-1.137200758,Rb2ZnI4
mp-999263,0.592437164,RhN
mp-29560,-1.091469787,La6Si7Br3
mp-30309,-2.237704436,Y2Au5F21
mp-767934,-1.433411656,Li3Co13O16